 vasp.5.4.4.18Apr17-6-g9f103f2a35 (build Apr 27 2017 11:13:10) complex          
  
 executed on           IFC91_ompi date 2020.05.30  04:44:19
 running on    4 total cores
 distrk:  each k-point on    4 cores,    1 groups
 distr:  one band on NCORES_PER_BAND=   1 cores,    4 groups


--------------------------------------------------------------------------------------------------------


 INCAR:
 POTCAR:    PAW_PBE Mn_pv 02Aug2007               
 POTCAR:    PAW_PBE F 08Apr2002                   
 POTCAR:    PAW_PBE Mn_pv 02Aug2007               
   VRHFIN =Mn: 3p4s3d                                                           
   LEXCH  = PE                                                                  
   EATOM  =  2025.2664 eV,  148.8529 Ry                                         
                                                                                
   TITEL  = PAW_PBE Mn_pv 02Aug2007                                             
   LULTRA =        F    use ultrasoft PP ?                                      
   IUNSCR =        1    unscreen: 0-lin 1-nonlin 2-no                           
   RPACOR =    2.080    partial core radius                                     
   POMASS =   54.938; ZVAL   =   13.000    mass and valenz                      
   RCORE  =    2.300    outmost cutoff radius                                   
   RWIGS  =    2.500; RWIGS  =    1.323    wigner-seitz radius (au A)           
   ENMAX  =  269.864; ENMIN  =  202.398 eV                                      
   ICORE  =        3    local potential                                         
   LCOR   =        T    correct aug charges                                     
   LPAW   =        T    paw PP                                                  
   EAUG   =  569.085                                                            
   DEXC   =    0.000                                                            
   RMAX   =    2.343    core radius for proj-oper                               
   RAUG   =    1.300    factor for augmentation sphere                          
   RDEP   =    2.338    radius for radial grids                                 
   RDEPT  =    1.798    core radius for aug-charge                              
                                                                                
   Atomic configuration                                                         
    8 entries                                                                   
     n  l   j            E        occ.                                          
     1  0  0.50     -6424.8287   2.0000                                         
     2  0  0.50      -739.1154   2.0000                                         
     2  1  1.50      -625.3949   6.0000                                         
     3  0  0.50       -81.6100   2.0000                                         
     3  1  1.50       -50.4667   6.0000                                         
     3  2  2.50        -3.3745   6.0000                                         
     4  0  0.50        -4.1331   1.0000                                         
     4  3  2.50        -1.3606   0.0000                                         
   Description                                                                  
     l       E           TYP  RCUT    TYP  RCUT                                 
     1    -50.4666628     23  2.000                                             
     1     -1.3605826     23  2.000                                             
     2     -3.3744729     23  2.300                                             
     2     -4.7350555     23  2.300                                             
     0     -4.1331431     23  2.300                                             
     0      7.6656591     23  2.300                                             
     3      9.5240782     23  2.300                                             
  local pseudopotential read in
  partial core-charges read in
  partial kinetic energy density read in
  atomic valenz-charges read in
  non local Contribution for L=           1  read in
    real space projection operators read in
  non local Contribution for L=           1  read in
    real space projection operators read in
  non local Contribution for L=           2  read in
    real space projection operators read in
  non local Contribution for L=           2  read in
    real space projection operators read in
  non local Contribution for L=           0  read in
    real space projection operators read in
  non local Contribution for L=           0  read in
    real space projection operators read in
    PAW grid and wavefunctions read in
 
   number of l-projection  operators is LMAX  =           6
   number of lm-projection operators is LMMAX =          18
 
 POTCAR:    PAW_PBE F 08Apr2002                   
   VRHFIN =F: s2p5                                                              
   LEXCH  = PE                                                                  
   EATOM  =   659.6475 eV,   48.4827 Ry                                         
                                                                                
   TITEL  = PAW_PBE F 08Apr2002                                                 
   LULTRA =        F    use ultrasoft PP ?                                      
   IUNSCR =        1    unscreen: 0-lin 1-nonlin 2-no                           
   RPACOR =    1.200    partial core radius                                     
   POMASS =   18.998; ZVAL   =    7.000    mass and valenz                      
   RCORE  =    1.520    outmost cutoff radius                                   
   RWIGS  =    1.500; RWIGS  =    0.794    wigner-seitz radius (au A)           
   ENMAX  =  400.000; ENMIN  =  300.000 eV                                      
   ICORE  =        2    local potential                                         
   LCOR   =        T    correct aug charges                                     
   LPAW   =        T    paw PP                                                  
   EAUG   =  613.614                                                            
   RMAX   =    1.555    core radius for proj-oper                               
   RAUG   =    1.300    factor for augmentation sphere                          
   RDEP   =    1.539    radius for radial grids                                 
   RDEPT  =    1.299    core radius for aug-charge                              
                                                                                
   Atomic configuration                                                         
    4 entries                                                                   
     n  l   j            E        occ.                                          
     1  0  0.50      -663.3661   2.0000                                         
     2  0  0.50       -29.8995   2.0000                                         
     2  1  0.50       -11.1114   5.0000                                         
     3  2  1.50       -10.8847   0.0000                                         
   Description                                                                  
     l       E           TYP  RCUT    TYP  RCUT                                 
     0    -29.8995018     23  1.200                                             
     0     -9.5240782     23  1.200                                             
     1    -11.1113914     23  1.520                                             
     1      1.3605826     23  1.520                                             
     2    -10.8846608      7  1.500                                             
  local pseudopotential read in
  partial core-charges read in
  partial kinetic energy density read in
  atomic valenz-charges read in
  non local Contribution for L=           0  read in
    real space projection operators read in
  non local Contribution for L=           0  read in
    real space projection operators read in
  non local Contribution for L=           1  read in
    real space projection operators read in
  non local Contribution for L=           1  read in
    real space projection operators read in
    PAW grid and wavefunctions read in
 
   number of l-projection  operators is LMAX  =           4
   number of lm-projection operators is LMMAX =           8
 

 ----------------------------------------------------------------------------- 
|                                                                             |
|  ADVICE TO THIS USER RUNNING 'VASP/VAMP'   (HEAR YOUR MASTER'S VOICE ...):  |
|                                                                             |
|      You enforced a specific xc-type in the INCAR file,                     |
|      a different type was found on the POTCAR file                          |
|          I HOPE YOU KNOW, WHAT YOU ARE  DOING                               |
|                                                                             |
 ----------------------------------------------------------------------------- 

  PAW_PBE Mn_pv 02Aug2007               :
 energy of atom  1       EATOM=-2025.2664
 kinetic energy error for atom=    0.0020 (will be added to EATOM!!)
  PAW_PBE F 08Apr2002                   :
 energy of atom  2       EATOM= -659.6475
 kinetic energy error for atom=    0.0140 (will be added to EATOM!!)
 
 
 POSCAR: Mn  F                                   
  positions in cartesian coordinates
  No initial velocities read in
 exchange correlation table for  LEXCH =       14
   RHO(1)=    0.500       N(1)  =     2000
   RHO(2)=  100.500       N(2)  =     4000
 


--------------------------------------------------------------------------------------------------------


 ion  position               nearest neighbor table
   1  0.500  0.500  0.500-   3 2.11   4 2.11   5 2.14   6 2.14   5 2.14   6 2.14
   2  0.000  0.000  0.000-   5 2.11   6 2.11   3 2.14   4 2.14   3 2.14   4 2.14
   3  0.195  0.805  0.500-   1 2.11   2 2.14   2 2.14
   4  0.805  0.195  0.500-   1 2.11   2 2.14   2 2.14
   5  0.305  0.305  0.000-   2 2.11   1 2.14   1 2.14
   6  0.695  0.695  0.000-   2 2.11   1 2.14   1 2.14
 

IMPORTANT INFORMATION: All symmetrisations will be switched off!
NOSYMM: (Re-)initialisation of all symmetry stuff for point group C_1.

 
 
 KPOINTS: KPOINTS created by Atomic Simulation Env
  k-points in reciprocal lattice
Space group operators:
 irot       det(A)        alpha          n_x          n_y          n_z        tau_x        tau_y        tau_z
    1     1.000000     0.000000     1.000000     0.000000     0.000000     0.000000     0.000000     0.000000


--------------------------------------------------------------------------------------------------------




 Dimension of arrays:
   k-points           NKPTS =    152   k-points in BZ     NKDIM =    152   number of bands    NBANDS=     48
   number of dos      NEDOS =    301   number of ions     NIONS =      6
   non local maximal  LDIM  =      6   non local SUM 2l+1 LMDIM =     18
   total plane-waves  NPLWV =  24576
   max r-space proj   IRMAX =      1   max aug-charges    IRDMAX=  75389
   dimension x,y,z NGX =    32 NGY =   32 NGZ =   24
   dimension x,y,z NGXF=    64 NGYF=   64 NGZF=   48
   support grid    NGXF=   128 NGYF=  128 NGZF=   96
   ions per type =               2   4
   NGX,Y,Z   is equivalent  to a cutoff of  10.88, 10.88, 12.04 a.u.
   NGXF,Y,Z  is equivalent  to a cutoff of  21.75, 21.75, 24.07 a.u.

 SYSTEM =  unknown system                          
 POSCAR =  Mn  F                                   

 Startparameter for this run:
   NWRITE =      2    write-flag & timer
   PREC   = normal    normal or accurate (medium, high low for compatibility)
   ISTART =      0    job   : 0-new  1-cont  2-samecut
   ICHARG =     11    charge: 1-file 2-atom 10-const
   ISPIN  =      2    spin polarized calculation?
   LNONCOLLINEAR =      F non collinear calculations
   LSORBIT =      F    spin-orbit coupling
   INIWAV =      1    electr: 0-lowe 1-rand  2-diag
   LASPH  =      T    aspherical Exc in radial PAW
   METAGGA=      F    non-selfconsistent MetaGGA calc.

 Electronic Relaxation 1
   ENCUT  =  700.0 eV  51.45 Ry    7.17 a.u.  10.55 10.55  7.15*2*pi/ulx,y,z
   ENINI  =  700.0     initial cutoff
   ENAUG  =  613.6 eV  augmentation charge cutoff
   NELM   =     60;   NELMIN=  2; NELMDL=  0     # of ELM steps 
   EDIFF  = 0.1E-06   stopping-criterion for ELM
   LREAL  =      F    real-space projection
   NLSPLINE    = F    spline interpolate recip. space projectors
   LCOMPAT=      F    compatible to vasp.4.4
   GGA_COMPAT  = T    GGA compatible to vasp.4.4-vasp.4.6
   LMAXPAW     = -100 max onsite density
   LMAXMIX     =    4 max onsite mixed and CHGCAR
   VOSKOWN=      0    Vosko Wilk Nusair interpolation
   ROPT   =    0.00000   0.00000
 Ionic relaxation
   EDIFFG = 0.1E-05   stopping-criterion for IOM
   NSW    =      0    number of steps for IOM
   NBLOCK =      1;   KBLOCK =      1    inner block; outer block 
   IBRION =     -1    ionic relax: 0-MD 1-quasi-New 2-CG
   NFREE  =      0    steps in history (QN), initial steepest desc. (CG)
   ISIF   =      2    stress and relaxation
   IWAVPR =     10    prediction:  0-non 1-charg 2-wave 3-comb
   ISYM   =      0    0-nonsym 1-usesym 2-fastsym
   LCORR  =      T    Harris-Foulkes like correction to forces

   POTIM  = 0.5000    time-step for ionic-motion
   TEIN   =    0.0    initial temperature
   TEBEG  =    0.0;   TEEND  =   0.0 temperature during run
   SMASS  =  -3.00    Nose mass-parameter (am)
   estimated Nose-frequenzy (Omega)   =  0.10E-29 period in steps =****** mass=  -0.547E-27a.u.
   SCALEE = 1.0000    scale energy and forces
   NPACO  =    256;   APACO  = 16.0  distance and # of slots for P.C.
   PSTRESS=    0.0 pullay stress

  Mass of Ions in am
   POMASS =  54.94 19.00
  Ionic Valenz
   ZVAL   =  13.00  7.00
  Atomic Wigner-Seitz radii
   RWIGS  =  -1.00 -1.00
  virtual crystal weights 
   VCA    =   1.00  1.00
   NELECT =      54.0000    total number of electrons
   NUPDOWN=      -1.0000    fix difference up-down

 DOS related values:
   EMIN   =  10.00;   EMAX   =-10.00  energy-range for DOS
   EFERMI =   0.00
   ISMEAR =     0;   SIGMA  =   0.01  broadening in eV -4-tet -1-fermi 0-gaus

 Electronic relaxation 2 (details)
   IALGO  =     38    algorithm
   LDIAG  =      T    sub-space diagonalisation (order eigenvalues)
   LSUBROT=      F    optimize rotation matrix (better conditioning)
   TURBO    =      0    0=normal 1=particle mesh
   IRESTART =      0    0=no restart 2=restart with 2 vectors
   NREBOOT  =      0    no. of reboots
   NMIN     =      0    reboot dimension
   EREF     =   0.00    reference energy to select bands
   IMIX   =      4    mixing-type and parameters
     AMIX     =   0.40;   BMIX     =  1.00
     AMIX_MAG =   1.60;   BMIX_MAG =  1.00
     AMIN     =   0.10
     WC   =   100.;   INIMIX=   1;  MIXPRE=   1;  MAXMIX= -45

 Intra band minimization:
   WEIMIN = 0.0000     energy-eigenvalue tresh-hold
   EBREAK =  0.52E-09  absolut break condition
   DEPER  =   0.30     relativ break condition  

   TIME   =   0.40     timestep for ELM

  volume/ion in A,a.u.               =      13.22        89.23
  Fermi-wavevector in a.u.,A,eV,Ry     =   1.440092  2.721380 28.216662  2.073866
  Thomas-Fermi vector in A             =   2.558875
 
 Write flags
   LWAVE        =      F    write WAVECAR
   LDOWNSAMPLE  =      F    k-point downsampling of WAVECAR
   LCHARG       =      T    write CHGCAR
   LVTOT        =      F    write LOCPOT, total local potential
   LVHAR        =      F    write LOCPOT, Hartree potential only
   LELF         =      F    write electronic localiz. function (ELF)
   LORBIT       =     11    0 simple, 1 ext, 2 COOP (PROOUT), +10 PAW based schemes


 Dipole corrections
   LMONO  =      F    monopole corrections only (constant potential shift)
   LDIPOL =      F    correct potential (dipole corrections)
   IDIPOL =      0    1-x, 2-y, 3-z, 4-all directions 
   EPSILON=  1.0000000 bulk dielectric constant

 LDA+U is selected, type is set to LDAUTYPE =  2
   angular momentum for each species LDAUL =     2   -1
   U (eV)           for each species LDAUU =   4.0  0.0
   J (eV)           for each species LDAUJ =   0.0  0.0
 Exchange correlation treatment:
   GGA     =    PS    GGA type
   LEXCH   =    14    internal setting for exchange type
   VOSKOWN=      0    Vosko Wilk Nusair interpolation
   LHFCALC =     F    Hartree Fock is set to
   LHFONE  =     F    Hartree Fock one center treatment
   AEXX    =    0.0000 exact exchange contribution

 Linear response parameters
   LEPSILON=     F    determine dielectric tensor
   LRPA    =     F    only Hartree local field effects (RPA)
   LNABLA  =     F    use nabla operator in PAW spheres
   LVEL    =     F    velocity operator in full k-point grid
   LINTERFAST=   F  fast interpolation
   KINTER  =     0    interpolate to denser k-point grid
   CSHIFT  =0.1000    complex shift for real part using Kramers Kronig
   OMEGAMAX=  -1.0    maximum frequency
   DEG_THRESHOLD= 0.2000000E-02 threshold for treating states as degnerate
   RTIME   =   -0.100 relaxation time in fs
  (WPLASMAI=    0.000 imaginary part of plasma frequency in eV, 0.658/RTIME)
   DFIELD  = 0.0000000 0.0000000 0.0000000 field for delta impulse in time
 
 Orbital magnetization related:
   ORBITALMAG=     F  switch on orbital magnetization
   LCHIMAG   =     F  perturbation theory with respect to B field
   DQ        =  0.001000  dq finite difference perturbation B field
   LLRAUG    =     F  two centre corrections for induced B field



--------------------------------------------------------------------------------------------------------


 Static calculation
 charge density and potential remain constant during run
 spin polarized calculation
 Variant of blocked Davidson
 Davidson routine will perform the subspace rotation
 perform sub-space diagonalisation
    after iterative eigenvector-optimisation
 no mixing
 using additional bands           21
 reciprocal scheme for non local part
 use partial core corrections
 calculate Harris-corrections to forces 
   (improved forces if not selfconsistent)
 use gradient corrections 
 WARNING: stress and forces are not correct
  (second derivative of E(xc) not defined)
 use of overlap-Matrix (Vanderbilt PP)
 Gauss-broadening in eV      SIGMA  =   0.01


--------------------------------------------------------------------------------------------------------


  energy-cutoff  :      700.00
  volume of cell :       79.33
      direct lattice vectors                 reciprocal lattice vectors
     4.891796665  0.000000000  0.000000000     0.204423869  0.000000000  0.000000000
     0.000000000  4.891796665  0.000000000     0.000000000  0.204423869  0.000000000
     0.000000000  0.000000000  3.315204934     0.000000000  0.000000000  0.301640478

  length of vectors
     4.891796665  4.891796665  3.315204934     0.204423869  0.204423869  0.301640478


 
 k-points in units of 2pi/SCALE and weight: KPOINTS created by Atomic Simulation Env
   0.00000000  0.00000000  0.00000000       0.007
   0.00000000  0.00786255  0.00000000       0.007
   0.00000000  0.01572490  0.00000000       0.007
   0.00000000  0.02358745  0.00000000       0.007
   0.00000000  0.03144979  0.00000000       0.007
   0.00000000  0.03931235  0.00000000       0.007
   0.00000000  0.04717469  0.00000000       0.007
   0.00000000  0.05503724  0.00000000       0.007
   0.00000000  0.06289959  0.00000000       0.007
   0.00000000  0.07076214  0.00000000       0.007
   0.00000000  0.07862449  0.00000000       0.007
   0.00000000  0.08648704  0.00000000       0.007
   0.00000000  0.09434938  0.00000000       0.007
   0.00000000  0.10221193  0.00000000       0.007
   0.00786255  0.10221193  0.00000000       0.007
   0.01572490  0.10221193  0.00000000       0.007
   0.02358745  0.10221193  0.00000000       0.007
   0.03144979  0.10221193  0.00000000       0.007
   0.03931235  0.10221193  0.00000000       0.007
   0.04717469  0.10221193  0.00000000       0.007
   0.05503724  0.10221193  0.00000000       0.007
   0.06289959  0.10221193  0.00000000       0.007
   0.07076214  0.10221193  0.00000000       0.007
   0.07862449  0.10221193  0.00000000       0.007
   0.08648704  0.10221193  0.00000000       0.007
   0.09434938  0.10221193  0.00000000       0.007
   0.10221193  0.10221193  0.00000000       0.007
   0.09653345  0.09653345  0.00000000       0.007
   0.09085496  0.09085496  0.00000000       0.007
   0.08517668  0.08517668  0.00000000       0.007
   0.07949819  0.07949819  0.00000000       0.007
   0.07381971  0.07381971  0.00000000       0.007
   0.06814122  0.06814122  0.00000000       0.007
   0.06246294  0.06246294  0.00000000       0.007
   0.05678445  0.05678445  0.00000000       0.007
   0.05110597  0.05110597  0.00000000       0.007
   0.04542748  0.04542748  0.00000000       0.007
   0.03974899  0.03974899  0.00000000       0.007
   0.03407071  0.03407071  0.00000000       0.007
   0.02839223  0.02839223  0.00000000       0.007
   0.02271374  0.02271374  0.00000000       0.007
   0.01703525  0.01703525  0.00000000       0.007
   0.01135697  0.01135697  0.00000000       0.007
   0.00567849  0.00567849  0.00000000       0.007
   0.00000000  0.00000000  0.00000000       0.007
   0.00000000  0.00000000  0.00793797       0.007
   0.00000000  0.00000000  0.01587594       0.007
   0.00000000  0.00000000  0.02381361       0.007
   0.00000000  0.00000000  0.03175158       0.007
   0.00000000  0.00000000  0.03968955       0.007
   0.00000000  0.00000000  0.04762752       0.007
   0.00000000  0.00000000  0.05556549       0.007
   0.00000000  0.00000000  0.06350316       0.007
   0.00000000  0.00000000  0.07144113       0.007
   0.00000000  0.00000000  0.07937910       0.007
   0.00000000  0.00000000  0.08731708       0.007
   0.00000000  0.00000000  0.09525474       0.007
   0.00000000  0.00000000  0.10319272       0.007
   0.00000000  0.00000000  0.11113069       0.007
   0.00000000  0.00000000  0.11906866       0.007
   0.00000000  0.00000000  0.12700663       0.007
   0.00000000  0.00000000  0.13494430       0.007
   0.00000000  0.00000000  0.14288227       0.007
   0.00000000  0.00000000  0.15082024       0.007
   0.00000000  0.00786255  0.15082024       0.007
   0.00000000  0.01572490  0.15082024       0.007
   0.00000000  0.02358745  0.15082024       0.007
   0.00000000  0.03144979  0.15082024       0.007
   0.00000000  0.03931235  0.15082024       0.007
   0.00000000  0.04717469  0.15082024       0.007
   0.00000000  0.05503724  0.15082024       0.007
   0.00000000  0.06289959  0.15082024       0.007
   0.00000000  0.07076214  0.15082024       0.007
   0.00000000  0.07862449  0.15082024       0.007
   0.00000000  0.08648704  0.15082024       0.007
   0.00000000  0.09434938  0.15082024       0.007
   0.00000000  0.10221193  0.15082024       0.007
   0.00786255  0.10221193  0.15082024       0.007
   0.01572490  0.10221193  0.15082024       0.007
   0.02358745  0.10221193  0.15082024       0.007
   0.03144979  0.10221193  0.15082024       0.007
   0.03931235  0.10221193  0.15082024       0.007
   0.04717469  0.10221193  0.15082024       0.007
   0.05503724  0.10221193  0.15082024       0.007
   0.06289959  0.10221193  0.15082024       0.007
   0.07076214  0.10221193  0.15082024       0.007
   0.07862449  0.10221193  0.15082024       0.007
   0.08648704  0.10221193  0.15082024       0.007
   0.09434938  0.10221193  0.15082024       0.007
   0.10221193  0.10221193  0.15082024       0.007
   0.09683232  0.09683232  0.15082024       0.007
   0.09145270  0.09145270  0.15082024       0.007
   0.08607328  0.08607328  0.15082024       0.007
   0.08069366  0.08069366  0.15082024       0.007
   0.07531405  0.07531405  0.15082024       0.007
   0.06993443  0.06993443  0.15082024       0.007
   0.06455481  0.06455481  0.15082024       0.007
   0.05917540  0.05917540  0.15082024       0.007
   0.05379578  0.05379578  0.15082024       0.007
   0.04841616  0.04841616  0.15082024       0.007
   0.04303654  0.04303654  0.15082024       0.007
   0.03765713  0.03765713  0.15082024       0.007
   0.03227751  0.03227751  0.15082024       0.007
   0.02689789  0.02689789  0.15082024       0.007
   0.02151827  0.02151827  0.15082024       0.007
   0.01613865  0.01613865  0.15082024       0.007
   0.01075924  0.01075924  0.15082024       0.007
   0.00537962  0.00537962  0.15082024       0.007
   0.00000000  0.00000000  0.15082024       0.007
   0.00000000  0.10221193  0.00000000       0.007
   0.00000000  0.10221193  0.00754101       0.007
   0.00000000  0.10221193  0.01508202       0.007
   0.00000000  0.10221193  0.02262304       0.007
   0.00000000  0.10221193  0.03016405       0.007
   0.00000000  0.10221193  0.03770506       0.007
   0.00000000  0.10221193  0.04524607       0.007
   0.00000000  0.10221193  0.05278708       0.007
   0.00000000  0.10221193  0.06032810       0.007
   0.00000000  0.10221193  0.06786911       0.007
   0.00000000  0.10221193  0.07541012       0.007
   0.00000000  0.10221193  0.08295113       0.007
   0.00000000  0.10221193  0.09049214       0.007
   0.00000000  0.10221193  0.09803316       0.007
   0.00000000  0.10221193  0.10557417       0.007
   0.00000000  0.10221193  0.11311518       0.007
   0.00000000  0.10221193  0.12065619       0.007
   0.00000000  0.10221193  0.12819720       0.007
   0.00000000  0.10221193  0.13573821       0.007
   0.00000000  0.10221193  0.14327923       0.007
   0.00000000  0.10221193  0.15082024       0.007
   0.10221193  0.10221193  0.00000000       0.007
   0.10221193  0.10221193  0.00718206       0.007
   0.10221193  0.10221193  0.01436382       0.007
   0.10221193  0.10221193  0.02154588       0.007
   0.10221193  0.10221193  0.02872764       0.007
   0.10221193  0.10221193  0.03590970       0.007
   0.10221193  0.10221193  0.04309145       0.007
   0.10221193  0.10221193  0.05027351       0.007
   0.10221193  0.10221193  0.05745527       0.007
   0.10221193  0.10221193  0.06463733       0.007
   0.10221193  0.10221193  0.07181909       0.007
   0.10221193  0.10221193  0.07900115       0.007
   0.10221193  0.10221193  0.08618291       0.007
   0.10221193  0.10221193  0.09336497       0.007
   0.10221193  0.10221193  0.10054673       0.007
   0.10221193  0.10221193  0.10772879       0.007
   0.10221193  0.10221193  0.11491054       0.007
   0.10221193  0.10221193  0.12209260       0.007
   0.10221193  0.10221193  0.12927436       0.007
   0.10221193  0.10221193  0.13645642       0.007
   0.10221193  0.10221193  0.14363818       0.007
   0.10221193  0.10221193  0.15082024       0.007
 
 k-points in reciprocal lattice and weights: KPOINTS created by Atomic Simulation Env
   0.00000000  0.00000000  0.00000000       0.007
   0.00000000  0.03846200  0.00000000       0.007
   0.00000000  0.07692300  0.00000000       0.007
   0.00000000  0.11538500  0.00000000       0.007
   0.00000000  0.15384600  0.00000000       0.007
   0.00000000  0.19230800  0.00000000       0.007
   0.00000000  0.23076900  0.00000000       0.007
   0.00000000  0.26923100  0.00000000       0.007
   0.00000000  0.30769200  0.00000000       0.007
   0.00000000  0.34615400  0.00000000       0.007
   0.00000000  0.38461500  0.00000000       0.007
   0.00000000  0.42307700  0.00000000       0.007
   0.00000000  0.46153800  0.00000000       0.007
   0.00000000  0.50000000  0.00000000       0.007
   0.03846200  0.50000000  0.00000000       0.007
   0.07692300  0.50000000  0.00000000       0.007
   0.11538500  0.50000000  0.00000000       0.007
   0.15384600  0.50000000  0.00000000       0.007
   0.19230800  0.50000000  0.00000000       0.007
   0.23076900  0.50000000  0.00000000       0.007
   0.26923100  0.50000000  0.00000000       0.007
   0.30769200  0.50000000  0.00000000       0.007
   0.34615400  0.50000000  0.00000000       0.007
   0.38461500  0.50000000  0.00000000       0.007
   0.42307700  0.50000000  0.00000000       0.007
   0.46153800  0.50000000  0.00000000       0.007
   0.50000000  0.50000000  0.00000000       0.007
   0.47222200  0.47222200  0.00000000       0.007
   0.44444400  0.44444400  0.00000000       0.007
   0.41666700  0.41666700  0.00000000       0.007
   0.38888900  0.38888900  0.00000000       0.007
   0.36111100  0.36111100  0.00000000       0.007
   0.33333300  0.33333300  0.00000000       0.007
   0.30555600  0.30555600  0.00000000       0.007
   0.27777800  0.27777800  0.00000000       0.007
   0.25000000  0.25000000  0.00000000       0.007
   0.22222200  0.22222200  0.00000000       0.007
   0.19444400  0.19444400  0.00000000       0.007
   0.16666700  0.16666700  0.00000000       0.007
   0.13888900  0.13888900  0.00000000       0.007
   0.11111100  0.11111100  0.00000000       0.007
   0.08333300  0.08333300  0.00000000       0.007
   0.05555600  0.05555600  0.00000000       0.007
   0.02777800  0.02777800  0.00000000       0.007
   0.00000000  0.00000000  0.00000000       0.007
   0.00000000  0.00000000  0.02631600       0.007
   0.00000000  0.00000000  0.05263200       0.007
   0.00000000  0.00000000  0.07894700       0.007
   0.00000000  0.00000000  0.10526300       0.007
   0.00000000  0.00000000  0.13157900       0.007
   0.00000000  0.00000000  0.15789500       0.007
   0.00000000  0.00000000  0.18421100       0.007
   0.00000000  0.00000000  0.21052600       0.007
   0.00000000  0.00000000  0.23684200       0.007
   0.00000000  0.00000000  0.26315800       0.007
   0.00000000  0.00000000  0.28947400       0.007
   0.00000000  0.00000000  0.31578900       0.007
   0.00000000  0.00000000  0.34210500       0.007
   0.00000000  0.00000000  0.36842100       0.007
   0.00000000  0.00000000  0.39473700       0.007
   0.00000000  0.00000000  0.42105300       0.007
   0.00000000  0.00000000  0.44736800       0.007
   0.00000000  0.00000000  0.47368400       0.007
   0.00000000  0.00000000  0.50000000       0.007
   0.00000000  0.03846200  0.50000000       0.007
   0.00000000  0.07692300  0.50000000       0.007
   0.00000000  0.11538500  0.50000000       0.007
   0.00000000  0.15384600  0.50000000       0.007
   0.00000000  0.19230800  0.50000000       0.007
   0.00000000  0.23076900  0.50000000       0.007
   0.00000000  0.26923100  0.50000000       0.007
   0.00000000  0.30769200  0.50000000       0.007
   0.00000000  0.34615400  0.50000000       0.007
   0.00000000  0.38461500  0.50000000       0.007
   0.00000000  0.42307700  0.50000000       0.007
   0.00000000  0.46153800  0.50000000       0.007
   0.00000000  0.50000000  0.50000000       0.007
   0.03846200  0.50000000  0.50000000       0.007
   0.07692300  0.50000000  0.50000000       0.007
   0.11538500  0.50000000  0.50000000       0.007
   0.15384600  0.50000000  0.50000000       0.007
   0.19230800  0.50000000  0.50000000       0.007
   0.23076900  0.50000000  0.50000000       0.007
   0.26923100  0.50000000  0.50000000       0.007
   0.30769200  0.50000000  0.50000000       0.007
   0.34615400  0.50000000  0.50000000       0.007
   0.38461500  0.50000000  0.50000000       0.007
   0.42307700  0.50000000  0.50000000       0.007
   0.46153800  0.50000000  0.50000000       0.007
   0.50000000  0.50000000  0.50000000       0.007
   0.47368400  0.47368400  0.50000000       0.007
   0.44736800  0.44736800  0.50000000       0.007
   0.42105300  0.42105300  0.50000000       0.007
   0.39473700  0.39473700  0.50000000       0.007
   0.36842100  0.36842100  0.50000000       0.007
   0.34210500  0.34210500  0.50000000       0.007
   0.31578900  0.31578900  0.50000000       0.007
   0.28947400  0.28947400  0.50000000       0.007
   0.26315800  0.26315800  0.50000000       0.007
   0.23684200  0.23684200  0.50000000       0.007
   0.21052600  0.21052600  0.50000000       0.007
   0.18421100  0.18421100  0.50000000       0.007
   0.15789500  0.15789500  0.50000000       0.007
   0.13157900  0.13157900  0.50000000       0.007
   0.10526300  0.10526300  0.50000000       0.007
   0.07894700  0.07894700  0.50000000       0.007
   0.05263200  0.05263200  0.50000000       0.007
   0.02631600  0.02631600  0.50000000       0.007
   0.00000000  0.00000000  0.50000000       0.007
   0.00000000  0.50000000  0.00000000       0.007
   0.00000000  0.50000000  0.02500000       0.007
   0.00000000  0.50000000  0.05000000       0.007
   0.00000000  0.50000000  0.07500000       0.007
   0.00000000  0.50000000  0.10000000       0.007
   0.00000000  0.50000000  0.12500000       0.007
   0.00000000  0.50000000  0.15000000       0.007
   0.00000000  0.50000000  0.17500000       0.007
   0.00000000  0.50000000  0.20000000       0.007
   0.00000000  0.50000000  0.22500000       0.007
   0.00000000  0.50000000  0.25000000       0.007
   0.00000000  0.50000000  0.27500000       0.007
   0.00000000  0.50000000  0.30000000       0.007
   0.00000000  0.50000000  0.32500000       0.007
   0.00000000  0.50000000  0.35000000       0.007
   0.00000000  0.50000000  0.37500000       0.007
   0.00000000  0.50000000  0.40000000       0.007
   0.00000000  0.50000000  0.42500000       0.007
   0.00000000  0.50000000  0.45000000       0.007
   0.00000000  0.50000000  0.47500000       0.007
   0.00000000  0.50000000  0.50000000       0.007
   0.50000000  0.50000000  0.00000000       0.007
   0.50000000  0.50000000  0.02381000       0.007
   0.50000000  0.50000000  0.04761900       0.007
   0.50000000  0.50000000  0.07142900       0.007
   0.50000000  0.50000000  0.09523800       0.007
   0.50000000  0.50000000  0.11904800       0.007
   0.50000000  0.50000000  0.14285700       0.007
   0.50000000  0.50000000  0.16666700       0.007
   0.50000000  0.50000000  0.19047600       0.007
   0.50000000  0.50000000  0.21428600       0.007
   0.50000000  0.50000000  0.23809500       0.007
   0.50000000  0.50000000  0.26190500       0.007
   0.50000000  0.50000000  0.28571400       0.007
   0.50000000  0.50000000  0.30952400       0.007
   0.50000000  0.50000000  0.33333300       0.007
   0.50000000  0.50000000  0.35714300       0.007
   0.50000000  0.50000000  0.38095200       0.007
   0.50000000  0.50000000  0.40476200       0.007
   0.50000000  0.50000000  0.42857100       0.007
   0.50000000  0.50000000  0.45238100       0.007
   0.50000000  0.50000000  0.47619000       0.007
   0.50000000  0.50000000  0.50000000       0.007
 
 position of ions in fractional coordinates (direct lattice) 
   0.50000000  0.50000000  0.50000000
   0.00000000  0.00000000  0.00000000
   0.19508961  0.80491039  0.50000000
   0.80491039  0.19508961  0.50000000
   0.30491039  0.30491039  0.00000000
   0.69508961  0.69508961  0.00000000
 
 position of ions in cartesian coordinates  (Angst):
   2.44589833  2.44589833  1.65760247
   0.00000000  0.00000000  0.00000000
   0.95433872  3.93745795  1.65760247
   3.93745795  0.95433872  1.65760247
   1.49155962  1.49155962  0.00000000
   3.40023705  3.40023705  0.00000000
 


--------------------------------------------------------------------------------------------------------


 k-point  1 :   0.0000 0.0000 0.0000  plane waves:    3347
 k-point  2 :   0.0000 0.0385 0.0000  plane waves:    3339
 k-point  3 :   0.0000 0.0769 0.0000  plane waves:    3347
 k-point  4 :   0.0000 0.1154 0.0000  plane waves:    3349
 k-point  5 :   0.0000 0.1538 0.0000  plane waves:    3343
 k-point  6 :   0.0000 0.1923 0.0000  plane waves:    3341
 k-point  7 :   0.0000 0.2308 0.0000  plane waves:    3337
 k-point  8 :   0.0000 0.2692 0.0000  plane waves:    3339
 k-point  9 :   0.0000 0.3077 0.0000  plane waves:    3333
 k-point 10 :   0.0000 0.3462 0.0000  plane waves:    3335
 k-point 11 :   0.0000 0.3846 0.0000  plane waves:    3335
 k-point 12 :   0.0000 0.4231 0.0000  plane waves:    3329
 k-point 13 :   0.0000 0.4615 0.0000  plane waves:    3346
 k-point 14 :   0.0000 0.5000 0.0000  plane waves:    3350
 k-point 15 :   0.0385 0.5000 0.0000  plane waves:    3336
 k-point 16 :   0.0769 0.5000 0.0000  plane waves:    3332
 k-point 17 :   0.1154 0.5000 0.0000  plane waves:    3328
 k-point 18 :   0.1538 0.5000 0.0000  plane waves:    3320
 k-point 19 :   0.1923 0.5000 0.0000  plane waves:    3332
 k-point 20 :   0.2308 0.5000 0.0000  plane waves:    3340
 k-point 21 :   0.2692 0.5000 0.0000  plane waves:    3332
 k-point 22 :   0.3077 0.5000 0.0000  plane waves:    3332
 k-point 23 :   0.3462 0.5000 0.0000  plane waves:    3330
 k-point 24 :   0.3846 0.5000 0.0000  plane waves:    3330
 k-point 25 :   0.4231 0.5000 0.0000  plane waves:    3324
 k-point 26 :   0.4615 0.5000 0.0000  plane waves:    3328
 k-point 27 :   0.5000 0.5000 0.0000  plane waves:    3356
 k-point 28 :   0.4722 0.4722 0.0000  plane waves:    3328
 k-point 29 :   0.4444 0.4444 0.0000  plane waves:    3327
 k-point 30 :   0.4167 0.4167 0.0000  plane waves:    3325
 k-point 31 :   0.3889 0.3889 0.0000  plane waves:    3333
 k-point 32 :   0.3611 0.3611 0.0000  plane waves:    3339
 k-point 33 :   0.3333 0.3333 0.0000  plane waves:    3333
 k-point 34 :   0.3056 0.3056 0.0000  plane waves:    3345
 k-point 35 :   0.2778 0.2778 0.0000  plane waves:    3335
 k-point 36 :   0.2500 0.2500 0.0000  plane waves:    3331
 k-point 37 :   0.2222 0.2222 0.0000  plane waves:    3325
 k-point 38 :   0.1944 0.1944 0.0000  plane waves:    3329
 k-point 39 :   0.1667 0.1667 0.0000  plane waves:    3325
 k-point 40 :   0.1389 0.1389 0.0000  plane waves:    3337
 k-point 41 :   0.1111 0.1111 0.0000  plane waves:    3333
 k-point 42 :   0.0833 0.0833 0.0000  plane waves:    3347
 k-point 43 :   0.0556 0.0556 0.0000  plane waves:    3349
 k-point 44 :   0.0278 0.0278 0.0000  plane waves:    3339
 k-point 45 :   0.0000 0.0000 0.0000  plane waves:    3347
 k-point 46 :   0.0000 0.0000 0.0263  plane waves:    3351
 k-point 47 :   0.0000 0.0000 0.0526  plane waves:    3355
 k-point 48 :   0.0000 0.0000 0.0789  plane waves:    3355
 k-point 49 :   0.0000 0.0000 0.1053  plane waves:    3351
 k-point 50 :   0.0000 0.0000 0.1316  plane waves:    3355
 k-point 51 :   0.0000 0.0000 0.1579  plane waves:    3342
 k-point 52 :   0.0000 0.0000 0.1842  plane waves:    3342
 k-point 53 :   0.0000 0.0000 0.2105  plane waves:    3342
 k-point 54 :   0.0000 0.0000 0.2368  plane waves:    3334
 k-point 55 :   0.0000 0.0000 0.2632  plane waves:    3322
 k-point 56 :   0.0000 0.0000 0.2895  plane waves:    3330
 k-point 57 :   0.0000 0.0000 0.3158  plane waves:    3314
 k-point 58 :   0.0000 0.0000 0.3421  plane waves:    3326
 k-point 59 :   0.0000 0.0000 0.3684  plane waves:    3322
 k-point 60 :   0.0000 0.0000 0.3947  plane waves:    3342
 k-point 61 :   0.0000 0.0000 0.4211  plane waves:    3350
 k-point 62 :   0.0000 0.0000 0.4474  plane waves:    3366
 k-point 63 :   0.0000 0.0000 0.4737  plane waves:    3362
 k-point 64 :   0.0000 0.0000 0.5000  plane waves:    3342
 k-point 65 :   0.0000 0.0385 0.5000  plane waves:    3354
 k-point 66 :   0.0000 0.0769 0.5000  plane waves:    3346
 k-point 67 :   0.0000 0.1154 0.5000  plane waves:    3344
 k-point 68 :   0.0000 0.1538 0.5000  plane waves:    3344
 k-point 69 :   0.0000 0.1923 0.5000  plane waves:    3360
 k-point 70 :   0.0000 0.2308 0.5000  plane waves:    3352
 k-point 71 :   0.0000 0.2692 0.5000  plane waves:    3354
 k-point 72 :   0.0000 0.3077 0.5000  plane waves:    3342
 k-point 73 :   0.0000 0.3462 0.5000  plane waves:    3344
 k-point 74 :   0.0000 0.3846 0.5000  plane waves:    3352
 k-point 75 :   0.0000 0.4231 0.5000  plane waves:    3350
 k-point 76 :   0.0000 0.4615 0.5000  plane waves:    3346
 k-point 77 :   0.0000 0.5000 0.5000  plane waves:    3364
 k-point 78 :   0.0385 0.5000 0.5000  plane waves:    3344
 k-point 79 :   0.0769 0.5000 0.5000  plane waves:    3340
 k-point 80 :   0.1154 0.5000 0.5000  plane waves:    3332
 k-point 81 :   0.1538 0.5000 0.5000  plane waves:    3344
 k-point 82 :   0.1923 0.5000 0.5000  plane waves:    3340
 k-point 83 :   0.2308 0.5000 0.5000  plane waves:    3336
 k-point 84 :   0.2692 0.5000 0.5000  plane waves:    3340
 k-point 85 :   0.3077 0.5000 0.5000  plane waves:    3340
 k-point 86 :   0.3462 0.5000 0.5000  plane waves:    3336
 k-point 87 :   0.3846 0.5000 0.5000  plane waves:    3332
 k-point 88 :   0.4231 0.5000 0.5000  plane waves:    3320
 k-point 89 :   0.4615 0.5000 0.5000  plane waves:    3320
 k-point 90 :   0.5000 0.5000 0.5000  plane waves:    3344
 k-point 91 :   0.4737 0.4737 0.5000  plane waves:    3322
 k-point 92 :   0.4474 0.4474 0.5000  plane waves:    3318
 k-point 93 :   0.4211 0.4211 0.5000  plane waves:    3324
 k-point 94 :   0.3947 0.3947 0.5000  plane waves:    3320
 k-point 95 :   0.3684 0.3684 0.5000  plane waves:    3328
 k-point 96 :   0.3421 0.3421 0.5000  plane waves:    3328
 k-point 97 :   0.3158 0.3158 0.5000  plane waves:    3336
 k-point 98 :   0.2895 0.2895 0.5000  plane waves:    3342
 k-point 99 :   0.2632 0.2632 0.5000  plane waves:    3338
 k-point ** :   0.2368 0.2368 0.5000  plane waves:    3342
 k-point ** :   0.2105 0.2105 0.5000  plane waves:    3340
 k-point ** :   0.1842 0.1842 0.5000  plane waves:    3334
 k-point ** :   0.1579 0.1579 0.5000  plane waves:    3334
 k-point ** :   0.1316 0.1316 0.5000  plane waves:    3338
 k-point ** :   0.1053 0.1053 0.5000  plane waves:    3344
 k-point ** :   0.0789 0.0789 0.5000  plane waves:    3348
 k-point ** :   0.0526 0.0526 0.5000  plane waves:    3352
 k-point ** :   0.0263 0.0263 0.5000  plane waves:    3352
 k-point ** :   0.0000 0.0000 0.5000  plane waves:    3342
 k-point ** :   0.0000 0.5000 0.0000  plane waves:    3350
 k-point ** :   0.0000 0.5000 0.0250  plane waves:    3342
 k-point ** :   0.0000 0.5000 0.0500  plane waves:    3328
 k-point ** :   0.0000 0.5000 0.0750  plane waves:    3330
 k-point ** :   0.0000 0.5000 0.1000  plane waves:    3324
 k-point ** :   0.0000 0.5000 0.1250  plane waves:    3324
 k-point ** :   0.0000 0.5000 0.1500  plane waves:    3326
 k-point ** :   0.0000 0.5000 0.1750  plane waves:    3338
 k-point ** :   0.0000 0.5000 0.2000  plane waves:    3338
 k-point ** :   0.0000 0.5000 0.2250  plane waves:    3346
 k-point ** :   0.0000 0.5000 0.2500  plane waves:    3336
 k-point ** :   0.0000 0.5000 0.2750  plane waves:    3322
 k-point ** :   0.0000 0.5000 0.3000  plane waves:    3336
 k-point ** :   0.0000 0.5000 0.3250  plane waves:    3340
 k-point ** :   0.0000 0.5000 0.3500  plane waves:    3328
 k-point ** :   0.0000 0.5000 0.3750  plane waves:    3334
 k-point ** :   0.0000 0.5000 0.4000  plane waves:    3334
 k-point ** :   0.0000 0.5000 0.4250  plane waves:    3342
 k-point ** :   0.0000 0.5000 0.4500  plane waves:    3342
 k-point ** :   0.0000 0.5000 0.4750  plane waves:    3356
 k-point ** :   0.0000 0.5000 0.5000  plane waves:    3364
 k-point ** :   0.5000 0.5000 0.0000  plane waves:    3356
 k-point ** :   0.5000 0.5000 0.0238  plane waves:    3304
 k-point ** :   0.5000 0.5000 0.0476  plane waves:    3304
 k-point ** :   0.5000 0.5000 0.0714  plane waves:    3320
 k-point ** :   0.5000 0.5000 0.0952  plane waves:    3320
 k-point ** :   0.5000 0.5000 0.1190  plane waves:    3304
 k-point ** :   0.5000 0.5000 0.1429  plane waves:    3316
 k-point ** :   0.5000 0.5000 0.1667  plane waves:    3320
 k-point ** :   0.5000 0.5000 0.1905  plane waves:    3320
 k-point ** :   0.5000 0.5000 0.2143  plane waves:    3320
 k-point ** :   0.5000 0.5000 0.2381  plane waves:    3304
 k-point ** :   0.5000 0.5000 0.2619  plane waves:    3308
 k-point ** :   0.5000 0.5000 0.2857  plane waves:    3324
 k-point ** :   0.5000 0.5000 0.3095  plane waves:    3320
 k-point ** :   0.5000 0.5000 0.3333  plane waves:    3324
 k-point ** :   0.5000 0.5000 0.3571  plane waves:    3324
 k-point ** :   0.5000 0.5000 0.3810  plane waves:    3340
 k-point ** :   0.5000 0.5000 0.4048  plane waves:    3340
 k-point ** :   0.5000 0.5000 0.4286  plane waves:    3340
 k-point ** :   0.5000 0.5000 0.4524  plane waves:    3324
 k-point ** :   0.5000 0.5000 0.4762  plane waves:    3332
 k-point ** :   0.5000 0.5000 0.5000  plane waves:    3344

 maximum and minimum number of plane-waves per node :      3366     3304

 maximum number of plane-waves:      3366
 maximum index in each direction: 
   IXMAX=   10   IYMAX=   10   IZMAX=    7
   IXMIN=  -11   IYMIN=  -11   IZMIN=   -7


 serial   3D FFT for wavefunctions
 parallel 3D FFT for charge:
    minimum data exchange during FFTs selected (reduces bandwidth)


 total amount of memory used by VASP MPI-rank0   391980. kBytes
=======================================================================

   base      :      30000. kBytes
   nonl-proj :     147760. kBytes
   fftplans  :       7420. kBytes
   grid      :       6062. kBytes
   one-center:        186. kBytes
   wavefun   :     200552. kBytes
 
     INWAV:  cpu time    0.0000: real time    0.0000
 initial charge density was supplied:
 number of electron      53.9999997 magnetization       0.0000000
 keeping initial charge density in first step


--------------------------------------------------------------------------------------------------------


 Maximum index for augmentation-charges        18257 (set IRDMAX)


--------------------------------------------------------------------------------------------------------


 First call to EWALD:  gamma=   0.413
 Maximum number of real-space cells 2x 2x 3
 Maximum number of reciprocal cells 3x 3x 2

    FEWALD:  cpu time    0.0012: real time    0.0012


--------------------------------------- Iteration      1(   1)  ---------------------------------------


    POTLOK:  cpu time    0.0735: real time    0.0735
    SETDIJ:  cpu time    1.1193: real time    1.1193
atom =   1  type =  1  l = 2
 
 onsite density matrix
 
spin component  1
 
  0.0450 -0.0000  0.0250 -0.0000  0.0000
 -0.0000  0.0370 -0.0000  0.0214 -0.0000
  0.0250 -0.0000  0.0315 -0.0000 -0.0000
 -0.0000  0.0214 -0.0000  0.0370  0.0000
  0.0000 -0.0000 -0.0000  0.0000  0.0136
 
spin component  2
 
  0.9696  0.0000  0.0190  0.0000 -0.0000
  0.0000  0.9642 -0.0000  0.0168 -0.0000
  0.0190 -0.0000  0.9584 -0.0000 -0.0000
  0.0000  0.0168 -0.0000  0.9642  0.0000
 -0.0000 -0.0000 -0.0000  0.0000  0.9476
 
 occupancies and eigenvectors
 
  o =  0.0124  v =  0.6081 -0.0000 -0.7938 -0.0000 -0.0000  0.0000  0.0000  0.0000  0.0000  0.0000      0.0000  0.0000  0.0000  0.0000  0.0000  0.0000  0.0000  0.0000  0.0000  0.0000
  o =  0.0136  v =  0.0000  0.0000 -0.0000 -0.0000  1.0000  0.0000  0.0000  0.0000  0.0000  0.0000      0.0000  0.0000  0.0000  0.0000  0.0000  0.0000  0.0000  0.0000  0.0000  0.0000
  o =  0.0157  v = -0.0000 -0.7071  0.0000  0.7071  0.0000  0.0000  0.0000  0.0000  0.0000  0.0000      0.0000  0.0000  0.0000  0.0000  0.0000  0.0000  0.0000  0.0000  0.0000  0.0000
  o =  0.0584  v = -0.0000 -0.7071 -0.0000 -0.7071 -0.0000  0.0000  0.0000  0.0000  0.0000  0.0000      0.0000  0.0000  0.0000  0.0000  0.0000  0.0000  0.0000  0.0000  0.0000  0.0000
  o =  0.0642  v = -0.7938  0.0000 -0.6081  0.0000 -0.0000  0.0000  0.0000  0.0000  0.0000  0.0000      0.0000  0.0000  0.0000  0.0000  0.0000  0.0000  0.0000  0.0000  0.0000  0.0000
  o =  0.9442  v =  0.0000  0.0000  0.0000  0.0000  0.0000 -0.5990  0.0000  0.8007  0.0000 -0.0000      0.0000  0.0000  0.0000  0.0000  0.0000  0.0000  0.0000  0.0000  0.0000  0.0000
  o =  0.9474  v =  0.0000  0.0000  0.0000  0.0000  0.0000 -0.0000  0.7071  0.0000 -0.7071  0.0000      0.0000  0.0000  0.0000  0.0000  0.0000  0.0000  0.0000  0.0000  0.0000  0.0000
  o =  0.9476  v =  0.0000  0.0000  0.0000  0.0000  0.0000 -0.0000  0.0000 -0.0000 -0.0000 -1.0000      0.0000  0.0000  0.0000  0.0000  0.0000  0.0000  0.0000  0.0000  0.0000  0.0000
  o =  0.9810  v =  0.0000  0.0000  0.0000  0.0000  0.0000  0.0000  0.7071  0.0000  0.7071  0.0000      0.0000  0.0000  0.0000  0.0000  0.0000  0.0000  0.0000  0.0000  0.0000  0.0000
  o =  0.9838  v =  0.0000  0.0000  0.0000  0.0000  0.0000 -0.8007  0.0000 -0.5990  0.0000  0.0000      0.0000  0.0000  0.0000  0.0000  0.0000  0.0000  0.0000  0.0000  0.0000  0.0000
atom =   2  type =  1  l = 2
 
 onsite density matrix
 
spin component  1
 
  0.9696 -0.0000 -0.0190 -0.0000  0.0000
 -0.0000  0.9642 -0.0000 -0.0168 -0.0000
 -0.0190 -0.0000  0.9584 -0.0000 -0.0000
 -0.0000 -0.0168 -0.0000  0.9642  0.0000
  0.0000 -0.0000 -0.0000  0.0000  0.9476
 
spin component  2
 
  0.0450  0.0000 -0.0250  0.0000 -0.0000
  0.0000  0.0370 -0.0000 -0.0214 -0.0000
 -0.0250 -0.0000  0.0315 -0.0000 -0.0000
  0.0000 -0.0214 -0.0000  0.0370  0.0000
 -0.0000 -0.0000 -0.0000  0.0000  0.0136
 
 occupancies and eigenvectors
 
  o =  0.0124  v =  0.0000  0.0000  0.0000  0.0000  0.0000  0.6081  0.0000  0.7938  0.0000  0.0000      0.0000  0.0000  0.0000  0.0000  0.0000  0.0000  0.0000  0.0000  0.0000  0.0000
  o =  0.0136  v =  0.0000  0.0000  0.0000  0.0000  0.0000  0.0000 -0.0000  0.0000  0.0000 -1.0000      0.0000  0.0000  0.0000  0.0000  0.0000  0.0000  0.0000  0.0000  0.0000  0.0000
  o =  0.0157  v =  0.0000  0.0000  0.0000  0.0000  0.0000 -0.0000  0.7071 -0.0000  0.7071 -0.0000      0.0000  0.0000  0.0000  0.0000  0.0000  0.0000  0.0000  0.0000  0.0000  0.0000
  o =  0.0584  v =  0.0000  0.0000  0.0000  0.0000  0.0000  0.0000 -0.7071 -0.0000  0.7071  0.0000      0.0000  0.0000  0.0000  0.0000  0.0000  0.0000  0.0000  0.0000  0.0000  0.0000
  o =  0.0642  v =  0.0000  0.0000  0.0000  0.0000  0.0000  0.7938  0.0000 -0.6081  0.0000 -0.0000      0.0000  0.0000  0.0000  0.0000  0.0000  0.0000  0.0000  0.0000  0.0000  0.0000
  o =  0.9442  v =  0.5990  0.0000  0.8007  0.0000 -0.0000  0.0000  0.0000  0.0000  0.0000  0.0000      0.0000  0.0000  0.0000  0.0000  0.0000  0.0000  0.0000  0.0000  0.0000  0.0000
  o =  0.9474  v = -0.0000  0.7071 -0.0000  0.7071  0.0000  0.0000  0.0000  0.0000  0.0000  0.0000      0.0000  0.0000  0.0000  0.0000  0.0000  0.0000  0.0000  0.0000  0.0000  0.0000
  o =  0.9476  v = -0.0000  0.0000  0.0000 -0.0000  1.0000  0.0000  0.0000  0.0000  0.0000  0.0000      0.0000  0.0000  0.0000  0.0000  0.0000  0.0000  0.0000  0.0000  0.0000  0.0000
  o =  0.9810  v = -0.0000 -0.7071 -0.0000  0.7071  0.0000  0.0000  0.0000  0.0000  0.0000  0.0000      0.0000  0.0000  0.0000  0.0000  0.0000  0.0000  0.0000  0.0000  0.0000  0.0000
  o =  0.9838  v = -0.8007 -0.0000  0.5990 -0.0000 -0.0000  0.0000  0.0000  0.0000  0.0000  0.0000      0.0000  0.0000  0.0000  0.0000  0.0000  0.0000  0.0000  0.0000  0.0000  0.0000
     EDDAV:  cpu time   18.9611: real time   19.0767
       DOS:  cpu time    0.0066: real time    0.0066
    --------------------------------------------
      LOOP:  cpu time   20.1605: real time   20.2762

 eigenvalue-minimisations  : 29248
 total energy-change (2. order) : 0.7369967E+03  (-0.3349161E+04)
 number of electron      53.9999997 magnetization       0.0000000
 augmentation part       53.9999997 magnetization       0.0000000

 Free energy of the ion-electron system (eV)
  ---------------------------------------------------
  alpha Z        PSCENC =       194.59399051
  Ewald energy   TEWEN  =     -4167.81530784
  -Hartree energ DENC   =     -2164.58914299
  -exchange      EXHF   =         0.00000000
  -V(xc)+E(xc)   XCENC  =       293.99574658
  PAW double counting   =      6239.89791191    -6347.76465491
  entropy T*S    EENTRO =        -0.00003727
  eigenvalues    EBANDS =        10.97761787
  atomic energy  EATOM  =      6677.70059608
  Solvation  Ediel_sol  =         0.00000000
  ---------------------------------------------------
  free energy    TOTEN  =       736.99671995 eV

  energy without entropy =      736.99675722  energy(sigma->0) =      736.99673859


--------------------------------------------------------------------------------------------------------




--------------------------------------- Iteration      1(   2)  ---------------------------------------


     EDDAV:  cpu time   21.9790: real time   21.9793
       DOS:  cpu time    0.0018: real time    0.0018
    --------------------------------------------
      LOOP:  cpu time   21.9808: real time   21.9811

 eigenvalue-minimisations  : 29240
 total energy-change (2. order) :-0.7066873E+03  (-0.6523312E+03)
 number of electron      53.9999997 magnetization       0.0000000
 augmentation part       53.9999997 magnetization       0.0000000

 Free energy of the ion-electron system (eV)
  ---------------------------------------------------
  alpha Z        PSCENC =       194.59399051
  Ewald energy   TEWEN  =     -4167.81530784
  -Hartree energ DENC   =     -2164.58914299
  -exchange      EXHF   =         0.00000000
  -V(xc)+E(xc)   XCENC  =       293.99574658
  PAW double counting   =      6239.89791191    -6347.76465491
  entropy T*S    EENTRO =        -0.00000000
  eigenvalues    EBANDS =      -695.70968093
  atomic energy  EATOM  =      6677.70059608
  Solvation  Ediel_sol  =         0.00000000
  ---------------------------------------------------
  free energy    TOTEN  =        30.30945842 eV

  energy without entropy =       30.30945842  energy(sigma->0) =       30.30945842


--------------------------------------------------------------------------------------------------------




--------------------------------------- Iteration      1(   3)  ---------------------------------------


     EDDAV:  cpu time   20.2927: real time   20.2932
       DOS:  cpu time    0.0018: real time    0.0018
    --------------------------------------------
      LOOP:  cpu time   20.2945: real time   20.2950

 eigenvalue-minimisations  : 33128
 total energy-change (2. order) :-0.6812812E+02  (-0.6690572E+02)
 number of electron      53.9999997 magnetization       0.0000000
 augmentation part       53.9999997 magnetization       0.0000000

 Free energy of the ion-electron system (eV)
  ---------------------------------------------------
  alpha Z        PSCENC =       194.59399051
  Ewald energy   TEWEN  =     -4167.81530784
  -Hartree energ DENC   =     -2164.58914299
  -exchange      EXHF   =         0.00000000
  -V(xc)+E(xc)   XCENC  =       293.99574658
  PAW double counting   =      6239.89791191    -6347.76465491
  entropy T*S    EENTRO =        -0.00000000
  eigenvalues    EBANDS =      -763.83779947
  atomic energy  EATOM  =      6677.70059608
  Solvation  Ediel_sol  =         0.00000000
  ---------------------------------------------------
  free energy    TOTEN  =       -37.81866012 eV

  energy without entropy =      -37.81866012  energy(sigma->0) =      -37.81866012


--------------------------------------------------------------------------------------------------------




--------------------------------------- Iteration      1(   4)  ---------------------------------------


     EDDAV:  cpu time   23.5251: real time   23.5254
       DOS:  cpu time    0.0019: real time    0.0020
    --------------------------------------------
      LOOP:  cpu time   23.5270: real time   23.5273

 eigenvalue-minimisations  : 32280
 total energy-change (2. order) :-0.1280297E+01  (-0.1278076E+01)
 number of electron      53.9999997 magnetization       0.0000000
 augmentation part       53.9999997 magnetization       0.0000000

 Free energy of the ion-electron system (eV)
  ---------------------------------------------------
  alpha Z        PSCENC =       194.59399051
  Ewald energy   TEWEN  =     -4167.81530784
  -Hartree energ DENC   =     -2164.58914299
  -exchange      EXHF   =         0.00000000
  -V(xc)+E(xc)   XCENC  =       293.99574658
  PAW double counting   =      6239.89791191    -6347.76465491
  entropy T*S    EENTRO =        -0.00000000
  eigenvalues    EBANDS =      -765.11809686
  atomic energy  EATOM  =      6677.70059608
  Solvation  Ediel_sol  =         0.00000000
  ---------------------------------------------------
  free energy    TOTEN  =       -39.09895751 eV

  energy without entropy =      -39.09895751  energy(sigma->0) =      -39.09895751


--------------------------------------------------------------------------------------------------------




--------------------------------------- Iteration      1(   5)  ---------------------------------------


     EDDAV:  cpu time   21.1429: real time   21.1434
       DOS:  cpu time    0.0017: real time    0.0017
    --------------------------------------------
      LOOP:  cpu time   21.1447: real time   21.1451

 eigenvalue-minimisations  : 33688
 total energy-change (2. order) :-0.1291523E-01  (-0.1291477E-01)
 number of electron      53.9999997 magnetization       0.0000000
 augmentation part       53.9999997 magnetization       0.0000000

 Free energy of the ion-electron system (eV)
  ---------------------------------------------------
  alpha Z        PSCENC =       194.59399051
  Ewald energy   TEWEN  =     -4167.81530784
  -Hartree energ DENC   =     -2164.58914299
  -exchange      EXHF   =         0.00000000
  -V(xc)+E(xc)   XCENC  =       293.99574658
  PAW double counting   =      6239.89791191    -6347.76465491
  entropy T*S    EENTRO =        -0.00000000
  eigenvalues    EBANDS =      -765.13101208
  atomic energy  EATOM  =      6677.70059608
  Solvation  Ediel_sol  =         0.00000000
  ---------------------------------------------------
  free energy    TOTEN  =       -39.11187274 eV

  energy without entropy =      -39.11187274  energy(sigma->0) =      -39.11187274


--------------------------------------------------------------------------------------------------------




--------------------------------------- Iteration      1(   6)  ---------------------------------------


     EDDAV:  cpu time   25.0167: real time   25.0170
       DOS:  cpu time    0.0018: real time    0.0018
    --------------------------------------------
      LOOP:  cpu time   25.0185: real time   25.0189

 eigenvalue-minimisations  : 32592
 total energy-change (2. order) :-0.3307996E-03  (-0.3307963E-03)
 number of electron      53.9999997 magnetization       0.0000000
 augmentation part       53.9999997 magnetization       0.0000000

 Free energy of the ion-electron system (eV)
  ---------------------------------------------------
  alpha Z        PSCENC =       194.59399051
  Ewald energy   TEWEN  =     -4167.81530784
  -Hartree energ DENC   =     -2164.58914299
  -exchange      EXHF   =         0.00000000
  -V(xc)+E(xc)   XCENC  =       293.99574658
  PAW double counting   =      6239.89791191    -6347.76465491
  entropy T*S    EENTRO =        -0.00000000
  eigenvalues    EBANDS =      -765.13134288
  atomic energy  EATOM  =      6677.70059608
  Solvation  Ediel_sol  =         0.00000000
  ---------------------------------------------------
  free energy    TOTEN  =       -39.11220353 eV

  energy without entropy =      -39.11220353  energy(sigma->0) =      -39.11220353


--------------------------------------------------------------------------------------------------------




--------------------------------------- Iteration      1(   7)  ---------------------------------------


     EDDAV:  cpu time   28.7201: real time   28.7208
       DOS:  cpu time    0.0019: real time    0.0019
    --------------------------------------------
      LOOP:  cpu time   28.7220: real time   28.7227

 eigenvalue-minimisations  : 36624
 total energy-change (2. order) :-0.1280350E-04  (-0.1280347E-04)
 number of electron      53.9999997 magnetization       0.0000000
 augmentation part       53.9999997 magnetization       0.0000000

 Free energy of the ion-electron system (eV)
  ---------------------------------------------------
  alpha Z        PSCENC =       194.59399051
  Ewald energy   TEWEN  =     -4167.81530784
  -Hartree energ DENC   =     -2164.58914299
  -exchange      EXHF   =         0.00000000
  -V(xc)+E(xc)   XCENC  =       293.99574658
  PAW double counting   =      6239.89791191    -6347.76465491
  entropy T*S    EENTRO =        -0.00000000
  eigenvalues    EBANDS =      -765.13135569
  atomic energy  EATOM  =      6677.70059608
  Solvation  Ediel_sol  =         0.00000000
  ---------------------------------------------------
  free energy    TOTEN  =       -39.11221634 eV

  energy without entropy =      -39.11221634  energy(sigma->0) =      -39.11221634


--------------------------------------------------------------------------------------------------------




--------------------------------------- Iteration      1(   8)  ---------------------------------------


     EDDAV:  cpu time   25.4207: real time   25.4213
       DOS:  cpu time    0.0022: real time    0.0022
    --------------------------------------------
      LOOP:  cpu time   25.4230: real time   25.4236

 eigenvalue-minimisations  : 29272
 total energy-change (2. order) :-0.5709489E-06  (-0.5709479E-06)
 number of electron      53.9999997 magnetization       0.0000000
 augmentation part       53.9999997 magnetization       0.0000000

 Free energy of the ion-electron system (eV)
  ---------------------------------------------------
  alpha Z        PSCENC =       194.59399051
  Ewald energy   TEWEN  =     -4167.81530784
  -Hartree energ DENC   =     -2164.58914299
  -exchange      EXHF   =         0.00000000
  -V(xc)+E(xc)   XCENC  =       293.99574658
  PAW double counting   =      6239.89791191    -6347.76465491
  entropy T*S    EENTRO =        -0.00000000
  eigenvalues    EBANDS =      -765.13135626
  atomic energy  EATOM  =      6677.70059608
  Solvation  Ediel_sol  =         0.00000000
  ---------------------------------------------------
  free energy    TOTEN  =       -39.11221691 eV

  energy without entropy =      -39.11221691  energy(sigma->0) =      -39.11221691


--------------------------------------------------------------------------------------------------------




--------------------------------------- Iteration      1(   9)  ---------------------------------------


     EDDAV:  cpu time   21.0595: real time   21.0602
       DOS:  cpu time    0.0020: real time    0.0020
    --------------------------------------------
      LOOP:  cpu time   21.0615: real time   21.0621

 eigenvalue-minimisations  : 22928
 total energy-change (2. order) :-0.2822708E-07  (-0.2821295E-07)
 number of electron      53.9999997 magnetization       0.0000000
 augmentation part       53.9999997 magnetization       0.0000000

 Free energy of the ion-electron system (eV)
  ---------------------------------------------------
  alpha Z        PSCENC =       194.59399051
  Ewald energy   TEWEN  =     -4167.81530784
  -Hartree energ DENC   =     -2164.58914299
  -exchange      EXHF   =         0.00000000
  -V(xc)+E(xc)   XCENC  =       293.99574658
  PAW double counting   =      6239.89791191    -6347.76465491
  entropy T*S    EENTRO =        -0.00000000
  eigenvalues    EBANDS =      -765.13135629
  atomic energy  EATOM  =      6677.70059608
  Solvation  Ediel_sol  =         0.00000000
  ---------------------------------------------------
  free energy    TOTEN  =       -39.11221694 eV

  energy without entropy =      -39.11221694  energy(sigma->0) =      -39.11221694


--------------------------------------------------------------------------------------------------------




 average (electrostatic) potential at core
  the test charge radii are     0.9577  0.7167
  (the norm of the test charge is              1.0000)
       1 -70.8877       2 -70.8877       3 -76.9926       4 -76.9926       5 -76.9926
       6 -76.9926
 
 
 
 E-fermi :   1.4561     XC(G=0):  -9.9360     alpha+bet : -8.4484


 spin component 1

 k-point     1 :       0.0000    0.0000    0.0000
  band No.  band energies     occupation 
      1     -46.8025      1.00000
      2     -46.7444      1.00000
      3     -46.7377      1.00000
      4     -41.8213      1.00000
      5     -41.7606      1.00000
      6     -41.7512      1.00000
      7     -21.1760      1.00000
      8     -20.6641      1.00000
      9     -20.6236      1.00000
     10     -20.5846      1.00000
     11      -4.8751      1.00000
     12      -4.1500      1.00000
     13      -3.8253      1.00000
     14      -3.4992      1.00000
     15      -2.8003      1.00000
     16      -2.7829      1.00000
     17      -2.7307      1.00000
     18      -2.7028      1.00000
     19      -1.8558      1.00000
     20      -1.4530      1.00000
     21      -1.4400      1.00000
     22      -1.1439      1.00000
     23      -0.6923      1.00000
     24      -0.5102      1.00000
     25      -0.2271      1.00000
     26       0.7643      1.00000
     27       1.1918      1.00000
     28       4.6385      0.00000
     29       6.7122      0.00000
     30       7.3229      0.00000
     31       7.3733      0.00000
     32       8.0960      0.00000
     33       8.1898      0.00000
     34       9.6874      0.00000
     35      10.1722      0.00000
     36      11.7757      0.00000
     37      12.8756      0.00000
     38      14.4660      0.00000
     39      15.2876      0.00000
     40      15.6827      0.00000
     41      15.9620      0.00000
     42      16.8661      0.00000
     43      18.5592      0.00000
     44      19.2711      0.00000
     45      22.4944      0.00000
     46      22.7623      0.00000
     47      23.5096      0.00000
     48      23.5603      0.00000

 k-point     2 :       0.0000    0.0385    0.0000
  band No.  band energies     occupation 
      1     -46.8025      1.00000
      2     -46.7444      1.00000
      3     -46.7377      1.00000
      4     -41.8213      1.00000
      5     -41.7606      1.00000
      6     -41.7512      1.00000
      7     -21.1742      1.00000
      8     -20.6670      1.00000
      9     -20.6223      1.00000
     10     -20.5849      1.00000
     11      -4.8696      1.00000
     12      -4.1492      1.00000
     13      -3.8256      1.00000
     14      -3.4958      1.00000
     15      -2.8059      1.00000
     16      -2.7813      1.00000
     17      -2.7287      1.00000
     18      -2.7015      1.00000
     19      -1.8598      1.00000
     20      -1.4641      1.00000
     21      -1.4462      1.00000
     22      -1.1468      1.00000
     23      -0.6908      1.00000
     24      -0.5092      1.00000
     25      -0.2254      1.00000
     26       0.7694      1.00000
     27       1.1923      1.00000
     28       4.6564      0.00000
     29       6.7132      0.00000
     30       7.3227      0.00000
     31       7.3728      0.00000
     32       8.0938      0.00000
     33       8.1895      0.00000
     34       9.6732      0.00000
     35      10.1607      0.00000
     36      11.7930      0.00000
     37      12.8960      0.00000
     38      14.4369      0.00000
     39      15.1726      0.00000
     40      15.7983      0.00000
     41      16.0006      0.00000
     42      16.8714      0.00000
     43      18.5598      0.00000
     44      19.2764      0.00000
     45      22.4812      0.00000
     46      22.6126      0.00000
     47      23.5281      0.00000
     48      23.6327      0.00000

 k-point     3 :       0.0000    0.0769    0.0000
  band No.  band energies     occupation 
      1     -46.8025      1.00000
      2     -46.7444      1.00000
      3     -46.7377      1.00000
      4     -41.8213      1.00000
      5     -41.7606      1.00000
      6     -41.7512      1.00000
      7     -21.1691      1.00000
      8     -20.6748      1.00000
      9     -20.6193      1.00000
     10     -20.5857      1.00000
     11      -4.8533      1.00000
     12      -4.1467      1.00000
     13      -3.8265      1.00000
     14      -3.4855      1.00000
     15      -2.8234      1.00000
     16      -2.7767      1.00000
     17      -2.7219      1.00000
     18      -2.6977      1.00000
     19      -1.8717      1.00000
     20      -1.5032      1.00000
     21      -1.4580      1.00000
     22      -1.1554      1.00000
     23      -0.6865      1.00000
     24      -0.5064      1.00000
     25      -0.2209      1.00000
     26       0.7843      1.00000
     27       1.1939      1.00000
     28       4.7098      0.00000
     29       6.7160      0.00000
     30       7.3218      0.00000
     31       7.3712      0.00000
     32       8.0873      0.00000
     33       8.1888      0.00000
     34       9.6206      0.00000
     35      10.1425      0.00000
     36      11.8366      0.00000
     37      12.9585      0.00000
     38      14.3556      0.00000
     39      14.9751      0.00000
     40      15.9534      0.00000
     41      16.1539      0.00000
     42      16.8873      0.00000
     43      18.5614      0.00000
     44      19.2925      0.00000
     45      22.2907      0.00000
     46      22.4389      0.00000
     47      23.2045      0.00000
     48      23.5247      0.00000

 k-point     4 :       0.0000    0.1154    0.0000
  band No.  band energies     occupation 
      1     -46.8025      1.00000
      2     -46.7444      1.00000
      3     -46.7377      1.00000
      4     -41.8213      1.00000
      5     -41.7606      1.00000
      6     -41.7512      1.00000
      7     -21.1606      1.00000
      8     -20.6865      1.00000
      9     -20.6157      1.00000
     10     -20.5870      1.00000
     11      -4.8267      1.00000
     12      -4.1424      1.00000
     13      -3.8278      1.00000
     14      -3.4681      1.00000
     15      -2.8538      1.00000
     16      -2.7693      1.00000
     17      -2.7093      1.00000
     18      -2.6912      1.00000
     19      -1.8911      1.00000
     20      -1.5674      1.00000
     21      -1.4739      1.00000
     22      -1.1695      1.00000
     23      -0.6801      1.00000
     24      -0.5020      1.00000
     25      -0.2141      1.00000
     26       0.8079      1.00000
     27       1.1964      1.00000
     28       4.7968      0.00000
     29       6.7204      0.00000
     30       7.3204      0.00000
     31       7.3686      0.00000
     32       8.0769      0.00000
     33       8.1876      0.00000
     34       9.5135      0.00000
     35      10.1486      0.00000
     36      11.8884      0.00000
     37      13.0655      0.00000
     38      14.2369      0.00000
     39      14.7744      0.00000
     40      16.0687      0.00000
     41      16.4055      0.00000
     42      16.9130      0.00000
     43      18.5640      0.00000
     44      19.3194      0.00000
     45      21.9121      0.00000
     46      22.3605      0.00000
     47      22.6856      0.00000
     48      23.5062      0.00000

 k-point     5 :       0.0000    0.1538    0.0000
  band No.  band energies     occupation 
      1     -46.8025      1.00000
      2     -46.7444      1.00000
      3     -46.7377      1.00000
      4     -41.8213      1.00000
      5     -41.7606      1.00000
      6     -41.7512      1.00000
      7     -21.1489      1.00000
      8     -20.7014      1.00000
      9     -20.6120      1.00000
     10     -20.5886      1.00000
     11      -4.7905      1.00000
     12      -4.1363      1.00000
     13      -3.8295      1.00000
     14      -3.4434      1.00000
     15      -2.8967      1.00000
     16      -2.7597      1.00000
     17      -2.6915      1.00000
     18      -2.6816      1.00000
     19      -1.9171      1.00000
     20      -1.6516      1.00000
     21      -1.4929      1.00000
     22      -1.1893      1.00000
     23      -0.6723      1.00000
     24      -0.4964      1.00000
     25      -0.2059      1.00000
     26       0.8381      1.00000
     27       1.1998      1.00000
     28       4.9152      0.00000
     29       6.7263      0.00000
     30       7.3186      0.00000
     31       7.3653      0.00000
     32       8.0629      0.00000
     33       8.1860      0.00000
     34       9.3532      0.00000
     35      10.1925      0.00000
     36      11.9319      0.00000
     37      13.2155      0.00000
     38      14.0989      0.00000
     39      14.5813      0.00000
     40      16.1896      0.00000
     41      16.6783      0.00000
     42      16.9472      0.00000
     43      18.5673      0.00000
     44      19.3573      0.00000
     45      21.5174      0.00000
     46      22.1753      0.00000
     47      22.2401      0.00000
     48      23.4783      0.00000

 k-point     6 :       0.0000    0.1923    0.0000
  band No.  band energies     occupation 
      1     -46.8025      1.00000
      2     -46.7444      1.00000
      3     -46.7377      1.00000
      4     -41.8213      1.00000
      5     -41.7606      1.00000
      6     -41.7512      1.00000
      7     -21.1341      1.00000
      8     -20.7190      1.00000
      9     -20.6087      1.00000
     10     -20.5903      1.00000
     11      -4.7461      1.00000
     12      -4.1279      1.00000
     13      -3.8316      1.00000
     14      -3.4112      1.00000
     15      -2.9509      1.00000
     16      -2.7490      1.00000
     17      -2.6699      1.00000
     18      -2.6686      1.00000
     19      -1.9490      1.00000
     20      -1.7511      1.00000
     21      -1.5132      1.00000
     22      -1.2142      1.00000
     23      -0.6637      1.00000
     24      -0.4900      1.00000
     25      -0.1972      1.00000
     26       0.8728      1.00000
     27       1.2038      1.00000
     28       5.0618      0.00000
     29       6.7332      0.00000
     30       7.3164      0.00000
     31       7.3613      0.00000
     32       8.0454      0.00000
     33       8.1841      0.00000
     34       9.1555      0.00000
     35      10.2698      0.00000
     36      11.9584      0.00000
     37      13.3977      0.00000
     38      13.9599      0.00000
     39      14.3991      0.00000
     40      16.3254      0.00000
     41      16.9385      0.00000
     42      16.9884      0.00000
     43      18.5711      0.00000
     44      19.4067      0.00000
     45      21.1234      0.00000
     46      21.7047      0.00000
     47      22.0784      0.00000
     48      23.4374      0.00000

 k-point     7 :       0.0000    0.2308    0.0000
  band No.  band energies     occupation 
      1     -46.8025      1.00000
      2     -46.7444      1.00000
      3     -46.7377      1.00000
      4     -41.8213      1.00000
      5     -41.7606      1.00000
      6     -41.7512      1.00000
      7     -21.1164      1.00000
      8     -20.7393      1.00000
      9     -20.6058      1.00000
     10     -20.5920      1.00000
     11      -4.6953      1.00000
     12      -4.1165      1.00000
     13      -3.8339      1.00000
     14      -3.3717      1.00000
     15      -3.0144      1.00000
     16      -2.7379      1.00000
     17      -2.6516      1.00000
     18      -2.6462      1.00000
     19      -1.9854      1.00000
     20      -1.8611      1.00000
     21      -1.5325      1.00000
     22      -1.2438      1.00000
     23      -0.6551      1.00000
     24      -0.4832      1.00000
     25      -0.1885      1.00000
     26       0.9097      1.00000
     27       1.2082      1.00000
     28       5.2331      0.00000
     29       6.7407      0.00000
     30       7.3139      0.00000
     31       7.3569      0.00000
     32       8.0238      0.00000
     33       8.1821      0.00000
     34       8.9358      0.00000
     35      10.3731      0.00000
     36      11.9656      0.00000
     37      13.5697      0.00000
     38      13.8530      0.00000
     39      14.2418      0.00000
     40      16.4756      0.00000
     41      17.0345      0.00000
     42      17.1584      0.00000
     43      18.5751      0.00000
     44      19.4679      0.00000
     45      20.7349      0.00000
     46      21.3082      0.00000
     47      21.8838      0.00000
     48      23.3874      0.00000

 k-point     8 :       0.0000    0.2692    0.0000
  band No.  band energies     occupation 
      1     -46.8025      1.00000
      2     -46.7444      1.00000
      3     -46.7377      1.00000
      4     -41.8213      1.00000
      5     -41.7606      1.00000
      6     -41.7512      1.00000
      7     -21.0960      1.00000
      8     -20.7620      1.00000
      9     -20.6033      1.00000
     10     -20.5937      1.00000
     11      -4.6407      1.00000
     12      -4.1013      1.00000
     13      -3.8362      1.00000
     14      -3.3262      1.00000
     15      -3.0846      1.00000
     16      -2.7276      1.00000
     17      -2.6306      1.00000
     18      -2.6226      1.00000
     19      -2.0252      1.00000
     20      -1.9768      1.00000
     21      -1.5488      1.00000
     22      -1.2774      1.00000
     23      -0.6467      1.00000
     24      -0.4765      1.00000
     25      -0.1803      1.00000
     26       0.9467      1.00000
     27       1.2127      1.00000
     28       5.4254      0.00000
     29       6.7482      0.00000
     30       7.3113      0.00000
     31       7.3524      0.00000
     32       7.9953      0.00000
     33       8.1800      0.00000
     34       8.7074      0.00000
     35      10.4968      0.00000
     36      11.9536      0.00000
     37      13.5851      0.00000
     38      13.8483      0.00000
     39      14.1874      0.00000
     40      16.6380      0.00000
     41      17.0830      0.00000
     42      17.3059      0.00000
     43      18.5791      0.00000
     44      19.5413      0.00000
     45      20.3479      0.00000
     46      21.0306      0.00000
     47      21.6689      0.00000
     48      23.3267      0.00000

 k-point     9 :       0.0000    0.3077    0.0000
  band No.  band energies     occupation 
      1     -46.8025      1.00000
      2     -46.7444      1.00000
      3     -46.7377      1.00000
      4     -41.8213      1.00000
      5     -41.7606      1.00000
      6     -41.7512      1.00000
      7     -21.0733      1.00000
      8     -20.7867      1.00000
      9     -20.6012      1.00000
     10     -20.5952      1.00000
     11      -4.5855      1.00000
     12      -4.0805      1.00000
     13      -3.8384      1.00000
     14      -3.2812      1.00000
     15      -3.1527      1.00000
     16      -2.7184      1.00000
     17      -2.6060      1.00000
     18      -2.6018      1.00000
     19      -2.0928      1.00000
     20      -2.0669      1.00000
     21      -1.5603      1.00000
     22      -1.3140      1.00000
     23      -0.6391      1.00000
     24      -0.4702      1.00000
     25      -0.1731      1.00000
     26       0.9815      1.00000
     27       1.2171      1.00000
     28       5.6348      0.00000
     29       6.7552      0.00000
     30       7.3087      0.00000
     31       7.3480      0.00000
     32       7.9515      0.00000
     33       8.1780      0.00000
     34       8.4858      0.00000
     35      10.6367      0.00000
     36      11.9221      0.00000
     37      13.4867      0.00000
     38      13.7789      0.00000
     39      14.3637      0.00000
     40      16.8053      0.00000
     41      17.1311      0.00000
     42      17.3541      0.00000
     43      18.5827      0.00000
     44      19.6273      0.00000
     45      19.9618      0.00000
     46      20.9094      0.00000
     47      21.4452      0.00000
     48      23.2532      0.00000

 k-point    10 :       0.0000    0.3462    0.0000
  band No.  band energies     occupation 
      1     -46.8025      1.00000
      2     -46.7444      1.00000
      3     -46.7377      1.00000
      4     -41.8213      1.00000
      5     -41.7606      1.00000
      6     -41.7512      1.00000
      7     -21.0486      1.00000
      8     -20.8131      1.00000
      9     -20.5995      1.00000
     10     -20.5963      1.00000
     11      -4.5338      1.00000
     12      -4.0527      1.00000
     13      -3.8405      1.00000
     14      -3.2837      1.00000
     15      -3.1698      1.00000
     16      -2.7108      1.00000
     17      -2.5880      1.00000
     18      -2.5787      1.00000
     19      -2.2027      1.00000
     20      -2.1089      1.00000
     21      -1.5655      1.00000
     22      -1.3524      1.00000
     23      -0.6325      1.00000
     24      -0.4648      1.00000
     25      -0.1669      1.00000
     26       1.0125      1.00000
     27       1.2212      1.00000
     28       5.8570      0.00000
[...]
     25      -0.1745      1.00000
     26       0.5186      1.00000
     27       1.0122      1.00000
     28       7.0549      0.00000
     29       7.0921      0.00000
     30       7.3599      0.00000
     31       7.7061      0.00000
     32       8.0363      0.00000
     33       9.9404      0.00000
     34      11.0806      0.00000
     35      11.0921      0.00000
     36      11.1621      0.00000
     37      12.2064      0.00000
     38      12.2921      0.00000
     39      12.3854      0.00000
     40      12.7892      0.00000
     41      17.5623      0.00000
     42      18.3643      0.00000
     43      18.4448      0.00000
     44      19.8814      0.00000
     45      19.9003      0.00000
     46      20.9235      0.00000
     47      21.4259      0.00000
     48      21.6203      0.00000

 k-point   151 :       0.5000    0.5000    0.4762
  band No.  band energies     occupation 
      1     -46.7991      1.00000
      2     -46.7586      1.00000
      3     -46.7431      1.00000
      4     -41.8158      1.00000
      5     -41.7809      1.00000
      6     -41.7588      1.00000
      7     -20.7730      1.00000
      8     -20.7432      1.00000
      9     -20.6866      1.00000
     10     -20.6088      1.00000
     11      -4.4311      1.00000
     12      -4.2217      1.00000
     13      -3.8919      1.00000
     14      -3.6913      1.00000
     15      -3.6284      1.00000
     16      -3.1450      1.00000
     17      -2.6322      1.00000
     18      -2.4589      1.00000
     19      -1.9584      1.00000
     20      -1.6446      1.00000
     21      -1.6293      1.00000
     22      -1.5634      1.00000
     23      -0.6236      1.00000
     24      -0.4452      1.00000
     25      -0.1682      1.00000
     26       0.5083      1.00000
     27       1.0205      1.00000
     28       7.0503      0.00000
     29       7.0877      0.00000
     30       7.3681      0.00000
     31       7.7063      0.00000
     32       8.0519      0.00000
     33       9.9822      0.00000
     34      11.1398      0.00000
     35      11.1534      0.00000
     36      11.3113      0.00000
     37      12.0426      0.00000
     38      12.2896      0.00000
     39      12.2992      0.00000
     40      12.6357      0.00000
     41      17.6501      0.00000
     42      18.4332      0.00000
     43      18.4377      0.00000
     44      19.7951      0.00000
     45      19.8704      0.00000
     46      20.9681      0.00000
     47      21.4705      0.00000
     48      21.6021      0.00000

 k-point   152 :       0.5000    0.5000    0.5000
  band No.  band energies     occupation 
      1     -46.7991      1.00000
      2     -46.7587      1.00000
      3     -46.7431      1.00000
      4     -41.8158      1.00000
      5     -41.7810      1.00000
      6     -41.7588      1.00000
      7     -20.7722      1.00000
      8     -20.7425      1.00000
      9     -20.6868      1.00000
     10     -20.6087      1.00000
     11      -4.4325      1.00000
     12      -4.2206      1.00000
     13      -3.8950      1.00000
     14      -3.6960      1.00000
     15      -3.6164      1.00000
     16      -3.1618      1.00000
     17      -2.6308      1.00000
     18      -2.4604      1.00000
     19      -1.9549      1.00000
     20      -1.6432      1.00000
     21      -1.6289      1.00000
     22      -1.5572      1.00000
     23      -0.6264      1.00000
     24      -0.4484      1.00000
     25      -0.1661      1.00000
     26       0.5048      1.00000
     27       1.0233      1.00000
     28       7.0487      0.00000
     29       7.0863      0.00000
     30       7.3708      0.00000
     31       7.7063      0.00000
     32       8.0570      0.00000
     33       9.9970      0.00000
     34      11.1548      0.00000
     35      11.1805      0.00000
     36      11.3790      0.00000
     37      11.9700      0.00000
     38      12.2547      0.00000
     39      12.3199      0.00000
     40      12.5662      0.00000
     41      17.6816      0.00000
     42      18.4292      0.00000
     43      18.4632      0.00000
     44      19.7574      0.00000
     45      19.8667      0.00000
     46      20.9840      0.00000
     47      21.4868      0.00000
     48      21.5665      0.00000


--------------------------------------------------------------------------------------------------------


 soft charge-density along one line, spin component           1
         0         1         2         3         4         5         6         7         8         9
 total charge-density along one line
 
 soft charge-density along one line, spin component           2
         0         1         2         3         4         5         6         7         8         9
 total charge-density along one line
 
 pseudopotential strength for first ion, spin component:           1
-42.534  -0.000  -0.028   7.885   0.000   0.012  -0.000  -0.000
 -0.000 -42.503  -0.000   0.000   7.872   0.000  -0.000  -0.000
 -0.028  -0.000 -42.534   0.012   0.000   7.885  -0.000  -0.000
  7.885   0.000   0.012   5.252   0.000  -0.002   0.000   0.000
  0.000   7.872   0.000   0.000   5.254   0.000   0.000   0.000
  0.012   0.000   7.885  -0.002   0.000   5.252   0.000   0.000
 -0.000  -0.000  -0.000   0.000   0.000   0.000  -1.494  -0.000
 -0.000  -0.000  -0.000   0.000   0.000   0.000  -0.000  -1.452
  0.000  -0.000   0.000  -0.000   0.000  -0.000  -0.064   0.000
 -0.000  -0.000  -0.000   0.000   0.000   0.000  -0.000  -0.081
  0.000   0.000  -0.000  -0.000  -0.000   0.000  -0.000   0.000
 -0.000  -0.000  -0.000   0.000   0.000   0.000  -1.935  -0.000
 -0.000  -0.000  -0.000   0.000   0.000   0.000  -0.000  -1.893
  0.000  -0.000   0.000  -0.000   0.000  -0.000  -0.067   0.000
 -0.000  -0.000  -0.000   0.000   0.000   0.000  -0.000  -0.084
  0.000   0.000  -0.000  -0.000  -0.000   0.000  -0.000   0.000
  0.000   0.000   0.000   0.000   0.000   0.000   0.007   0.000
  0.000   0.000   0.000   0.000   0.000   0.000   0.013   0.000
 pseudopotential strength for first ion, spin component:           2
-45.875  -0.000  -0.021   9.416   0.000   0.007  -0.000  -0.000
 -0.000 -45.855  -0.000   0.000   9.410   0.000   0.000  -0.000
 -0.021  -0.000 -45.875   0.007   0.000   9.416  -0.000   0.000
  9.416   0.000   0.007   4.737  -0.000  -0.001   0.000  -0.000
  0.000   9.410   0.000  -0.000   4.738  -0.000  -0.000   0.000
  0.007   0.000   9.416  -0.001  -0.000   4.737   0.000  -0.000
 -0.000   0.000  -0.000   0.000  -0.000   0.000  -7.788  -0.000
 -0.000  -0.000   0.000  -0.000   0.000  -0.000  -0.000  -7.760
  0.000  -0.000   0.000  -0.000   0.000  -0.000  -0.044   0.000
  0.000  -0.000  -0.000  -0.000   0.000   0.000  -0.000  -0.064
  0.000  -0.000  -0.000  -0.000   0.000   0.000   0.000   0.000
 -0.000   0.000  -0.000   0.000  -0.000   0.000  -8.284  -0.000
 -0.000  -0.000   0.000  -0.000   0.000  -0.000  -0.000  -8.255
  0.000  -0.000   0.000  -0.000   0.000  -0.000  -0.046   0.000
  0.000  -0.000  -0.000  -0.000   0.000   0.000  -0.000  -0.066
  0.000  -0.000  -0.000  -0.000   0.000   0.000   0.000   0.000
  0.000   0.000   0.000   0.000   0.000   0.000   0.003   0.000
  0.000   0.000   0.000   0.000   0.000   0.000   0.006   0.000
 total augmentation occupancy for first ion, spin component:           1
  2.000   0.000   0.000   0.000   0.000   0.000   0.000   0.000   0.000   0.000   0.000   0.000   0.000   0.000   0.000   0.000
  0.000   2.000   0.000   0.000   0.000   0.000   0.000   0.000   0.000   0.000   0.000   0.000   0.000   0.000   0.000   0.000
  0.000   0.000   2.000   0.000   0.000   0.000   0.000   0.000   0.000   0.000   0.000   0.000   0.000   0.000   0.000   0.000
  0.000   0.000   0.000   0.000   0.000   0.000   0.000   0.000   0.000   0.000   0.000   0.000   0.000   0.000   0.000   0.000
  0.000   0.000   0.000   0.000   0.000   0.000   0.000   0.000   0.000   0.000   0.000   0.000   0.000   0.000   0.000   0.000
  0.000   0.000   0.000   0.000   0.000   0.000   0.000   0.000   0.000   0.000   0.000   0.000   0.000   0.000   0.000   0.000
  0.000   0.000   0.000   0.000   0.000   0.000   1.200   0.000   0.000   0.000   0.000   0.000   0.000   0.000   0.000   0.000
  0.000   0.000   0.000   0.000   0.000   0.000   0.000   1.200   0.000   0.000   0.000   0.000   0.000   0.000   0.000   0.000
  0.000   0.000   0.000   0.000   0.000   0.000   0.000   0.000   1.200   0.000   0.000   0.000   0.000   0.000   0.000   0.000
  0.000   0.000   0.000   0.000   0.000   0.000   0.000   0.000   0.000   1.200   0.000   0.000   0.000   0.000   0.000   0.000
  0.000   0.000   0.000   0.000   0.000   0.000   0.000   0.000   0.000   0.000   1.200   0.000   0.000   0.000   0.000   0.000
  0.000   0.000   0.000   0.000   0.000   0.000   0.000   0.000   0.000   0.000   0.000   0.000   0.000   0.000   0.000   0.000
  0.000   0.000   0.000   0.000   0.000   0.000   0.000   0.000   0.000   0.000   0.000   0.000   0.000   0.000   0.000   0.000
  0.000   0.000   0.000   0.000   0.000   0.000   0.000   0.000   0.000   0.000   0.000   0.000   0.000   0.000   0.000   0.000
  0.000   0.000   0.000   0.000   0.000   0.000   0.000   0.000   0.000   0.000   0.000   0.000   0.000   0.000   0.000   0.000
  0.000   0.000   0.000   0.000   0.000   0.000   0.000   0.000   0.000   0.000   0.000   0.000   0.000   0.000   0.000   0.000
  0.000   0.000   0.000   0.000   0.000   0.000   0.000   0.000   0.000   0.000   0.000   0.000   0.000   0.000   0.000   0.000
  0.000   0.000   0.000   0.000   0.000   0.000   0.000   0.000   0.000   0.000   0.000   0.000   0.000   0.000   0.000   0.000
 total augmentation occupancy for first ion, spin component:           2
 -0.923   0.000   0.000   0.000   0.000   0.000   0.000   0.000   0.000   0.000   0.000   0.000   0.000   0.000   0.000   0.000
  0.000  -0.923   0.000   0.000   0.000   0.000   0.000   0.000   0.000   0.000   0.000   0.000   0.000   0.000   0.000   0.000
  0.000   0.000  -0.923   0.000   0.000   0.000   0.000   0.000   0.000   0.000   0.000   0.000   0.000   0.000   0.000   0.000
  0.000   0.000   0.000   0.000   0.000   0.000   0.000   0.000   0.000   0.000   0.000   0.000   0.000   0.000   0.000   0.000
  0.000   0.000   0.000   0.000   0.000   0.000   0.000   0.000   0.000   0.000   0.000   0.000   0.000   0.000   0.000   0.000
  0.000   0.000   0.000   0.000   0.000   0.000   0.000   0.000   0.000   0.000   0.000   0.000   0.000   0.000   0.000   0.000
  0.000   0.000   0.000   0.000   0.000   0.000  -0.554   0.000   0.000   0.000   0.000   0.000   0.000   0.000   0.000   0.000
  0.000   0.000   0.000   0.000   0.000   0.000   0.000  -0.554   0.000   0.000   0.000   0.000   0.000   0.000   0.000   0.000
  0.000   0.000   0.000   0.000   0.000   0.000   0.000   0.000  -0.554   0.000   0.000   0.000   0.000   0.000   0.000   0.000
  0.000   0.000   0.000   0.000   0.000   0.000   0.000   0.000   0.000  -0.554   0.000   0.000   0.000   0.000   0.000   0.000
  0.000   0.000   0.000   0.000   0.000   0.000   0.000   0.000   0.000   0.000  -0.554   0.000   0.000   0.000   0.000   0.000
  0.000   0.000   0.000   0.000   0.000   0.000   0.000   0.000   0.000   0.000   0.000   0.000   0.000   0.000   0.000   0.000
  0.000   0.000   0.000   0.000   0.000   0.000   0.000   0.000   0.000   0.000   0.000   0.000   0.000   0.000   0.000   0.000
  0.000   0.000   0.000   0.000   0.000   0.000   0.000   0.000   0.000   0.000   0.000   0.000   0.000   0.000   0.000   0.000
  0.000   0.000   0.000   0.000   0.000   0.000   0.000   0.000   0.000   0.000   0.000   0.000   0.000   0.000   0.000   0.000
  0.000   0.000   0.000   0.000   0.000   0.000   0.000   0.000   0.000   0.000   0.000   0.000   0.000   0.000   0.000   0.000
  0.000   0.000   0.000   0.000   0.000   0.000   0.000   0.000   0.000   0.000   0.000   0.000   0.000   0.000   0.000   0.000
  0.000   0.000   0.000   0.000   0.000   0.000   0.000   0.000   0.000   0.000   0.000   0.000   0.000   0.000   0.000   0.000


------------------------ aborting loop because EDIFF is reached ----------------------------------------


 


 total charge     
 
# of ion       s       p       d       tot
------------------------------------------
    1        0.161   6.149   4.948  11.259
    2        0.162   6.148   4.949  11.260
    3        1.725   4.369   0.000   6.094
    4        1.725   4.369   0.000   6.094
    5        1.725   4.368   0.000   6.093
    6        1.725   4.368   0.000   6.093
--------------------------------------------------
tot          7.224  29.772   9.897  46.894
 


 magnetization (x)
 
# of ion       s       p       d       tot
------------------------------------------
    1       -0.019  -0.018  -4.631  -4.668
    2        0.019   0.018   4.631   4.667
    3        0.001   0.017   0.000   0.019
    4        0.001   0.017   0.000   0.019
    5       -0.002  -0.016   0.000  -0.018
    6       -0.002  -0.016   0.000  -0.018
--------------------------------------------------
tot         -0.000   0.001  -0.001   0.000
 
    CHARGE:  cpu time    0.9039: real time    0.9040
    FORLOC:  cpu time    0.0037: real time    0.0037
    FORNL :  cpu time    8.5946: real time    8.5949
    STRESS:  cpu time   10.8158: real time   10.8161
    FORCOR:  cpu time    0.0710: real time    0.0710
    FORHAR:  cpu time    0.0091: real time    0.0092
    OFIELD:  cpu time    0.0007: real time    0.0006

  FORCE on cell =-STRESS in cart. coord.  units (eV):
  Direction    XX          YY          ZZ          XY          YZ          ZX
  --------------------------------------------------------------------------------------
  Alpha Z   194.59399   194.59399   194.59399
  Ewald   -1579.42609 -1579.42609 -1008.96626    -0.00000    -0.00000    -0.00000
  Hartree   593.32005   593.06831   979.30411    -0.16126     0.00000     0.00000
  E(xc)    -314.02794  -314.02872  -313.80679    -0.00003    -0.00000    -0.00000
  Local     157.57047   158.58607  -792.01472     0.28371    -0.00000    -0.00000
  n-local  -243.01331  -242.72657  -241.84407     0.00757     0.00000     0.00000
  augment   265.69137   265.54911   265.21572    -0.00826     0.00000     0.00000
  Kinetic   925.33679   924.54695   917.64148    -0.12782    -0.00000    -0.00000
  Fock        0.00000     0.00000     0.00000     0.00000     0.00000     0.00000
  -------------------------------------------------------------------------------------
  Total       0.04533     0.16305     0.12346    -0.00608     0.00000     0.00000
  in kB       0.91547     3.29298     2.49347    -0.12288     0.00005     0.00002
  external pressure =        2.23 kB  Pullay stress =        0.00 kB


 VOLUME and BASIS-vectors are now :
 -----------------------------------------------------------------------------
  energy-cutoff  :      700.00
  volume of cell :       79.33
      direct lattice vectors                 reciprocal lattice vectors
     4.891796665  0.000000000  0.000000000     0.204423869  0.000000000  0.000000000
     0.000000000  4.891796665  0.000000000     0.000000000  0.204423869  0.000000000
     0.000000000  0.000000000  3.315204934     0.000000000  0.000000000  0.301640478

  length of vectors
     4.891796665  4.891796665  3.315204934     0.204423869  0.204423869  0.301640478


 FORCES acting on ions
    electron-ion (+dipol)            ewald-force                    non-local-force                 convergence-correction
 -----------------------------------------------------------------------------------------------
   0.280E-05 0.289E-05 -.311E-07   0.000E+00 -.568E-13 -.757E-14   -.267E-05 -.191E-05 -.259E-06   -.239E-05 -.225E-05 0.223E-07
   -.179E-05 0.217E-05 -.181E-05   0.000E+00 0.000E+00 -.937E-14   0.547E-05 0.480E-07 -.146E-05   0.142E-05 -.171E-05 0.146E-05
   -.343E+02 0.343E+02 0.948E-07   0.357E+02 -.357E+02 0.376E-14   -.134E+01 0.136E+01 -.243E-06   0.252E-01 -.310E-01 -.419E-07
   0.343E+02 -.343E+02 0.918E-07   -.357E+02 0.357E+02 0.355E-14   0.134E+01 -.136E+01 0.141E-06   -.252E-01 0.310E-01 -.555E-07
   0.343E+02 0.343E+02 -.106E-06   -.357E+02 -.357E+02 0.688E-14   0.135E+01 0.138E+01 -.132E-06   0.315E-01 0.257E-01 0.671E-07
   -.343E+02 -.343E+02 -.132E-06   0.357E+02 0.357E+02 0.656E-14   -.135E+01 -.138E+01 -.799E-07   -.315E-01 -.257E-01 0.127E-06
 -----------------------------------------------------------------------------------------------
   0.100E-05 0.561E-05 -.189E-05   0.711E-14 0.000E+00 0.381E-14   0.241E-05 -.177E-05 -.204E-05   -.995E-06 -.423E-05 0.158E-05
 
 
 POSITION                                       TOTAL-FORCE (eV/Angst)
 -----------------------------------------------------------------------------------
      2.44590      2.44590      1.65760        -0.000003     -0.000001      0.000000
      0.00000      0.00000      0.00000         0.000005      0.000001     -0.000001
      0.95434      3.93746      1.65760         0.021674      0.007153      0.000000
      3.93746      0.95434      1.65760        -0.021675     -0.007153      0.000001
      1.49156      1.49156      0.00000        -0.016582      0.012246      0.000000
      3.40024      3.40024      0.00000         0.016581     -0.012246      0.000000
 -----------------------------------------------------------------------------------
    total drift:                                0.000002     -0.000000     -0.000002


--------------------------------------------------------------------------------------------------------



  FREE ENERGIE OF THE ION-ELECTRON SYSTEM (eV)
  ---------------------------------------------------
  free  energy   TOTEN  =       -39.11221694 eV

  energy  without entropy=      -39.11221694  energy(sigma->0) =      -39.11221694
 


--------------------------------------------------------------------------------------------------------


    POTLOK:  cpu time    1.2185: real time    1.2186


--------------------------------------------------------------------------------------------------------


     LOOP+:  cpu time  230.6721: real time  230.7922
    4ORBIT:  cpu time    0.0000: real time    0.0000
 


 total charge     
 
# of ion       s       p       d       tot
------------------------------------------
    1        0.161   6.149   4.948  11.259
    2        0.162   6.148   4.949  11.260
    3        1.725   4.369   0.000   6.094
    4        1.725   4.369   0.000   6.094
    5        1.725   4.368   0.000   6.093
    6        1.725   4.368   0.000   6.093
--------------------------------------------------
tot          7.224  29.772   9.897  46.894
 


 magnetization (x)
 
# of ion       s       p       d       tot
------------------------------------------
    1       -0.019  -0.018  -4.631  -4.668
    2        0.019   0.018   4.631   4.667
    3        0.001   0.017   0.000   0.019
    4        0.001   0.017   0.000   0.019
    5       -0.002  -0.016   0.000  -0.018
    6       -0.002  -0.016   0.000  -0.018
--------------------------------------------------
tot         -0.000   0.001  -0.001   0.000
 

 total amount of memory used by VASP MPI-rank0   391980. kBytes
=======================================================================

   base      :      30000. kBytes
   nonl-proj :     147760. kBytes
   fftplans  :       7420. kBytes
   grid      :       6062. kBytes
   one-center:        186. kBytes
   wavefun   :     200552. kBytes
 
  
  
 General timing and accounting informations for this job:
 ========================================================
  
                  Total CPU time used (sec):      238.667
                            User time (sec):      237.663
                          System time (sec):        1.004
                         Elapsed time (sec):      238.803
  
                   Maximum memory used (kb):      396572.
                   Average memory used (kb):           0.
  
                          Minor page faults:        95659
                          Major page faults:            6
                 Voluntary context switches:          141
