 vasp.5.4.4.18Apr17-6-g9f103f2a35 (build Apr 27 2017 11:13:10) complex          
  
 executed on           IFC91_ompi date 2021.06.08  16:26:01
 running on   12 total cores
 distrk:  each k-point on   12 cores,    1 groups
 distr:  one band on NCORES_PER_BAND=   1 cores,   12 groups


--------------------------------------------------------------------------------------------------------


 INCAR:
 POTCAR:    PAW Mn_pv 02Aug2007                   
 POTCAR:    PAW F 31May2000                       

 ----------------------------------------------------------------------------- 
|                                                                             |
|           W    W    AA    RRRRR   N    N  II  N    N   GGGG   !!!           |
|           W    W   A  A   R    R  NN   N  II  NN   N  G    G  !!!           |
|           W    W  A    A  R    R  N N  N  II  N N  N  G       !!!           |
|           W WW W  AAAAAA  RRRRR   N  N N  II  N  N N  G  GGG   !            |
|           WW  WW  A    A  R   R   N   NN  II  N   NN  G    G                |
|           W    W  A    A  R    R  N    N  II  N    N   GGGG   !!!           |
|                                                                             |
|      For optimal performance we recommend to set                            |
|        NCORE= 4 - approx SQRT( number of cores)                             |
|      NCORE specifies how many cores store one orbital (NPAR=cpu/NCORE).     |
|      This setting can  greatly improve the performance of VASP for DFT.     |
|      The default,   NCORE=1            might be grossly inefficient         |
|      on modern multi-core architectures or massively parallel machines.     |
|      Do your own testing !!!!                                               |
|      Unfortunately you need to use the default for GW and RPA calculations. |
|      (for HF NCORE is supported but not extensively tested yet)             |
|                                                                             |
 ----------------------------------------------------------------------------- 

 POTCAR:    PAW Mn_pv 02Aug2007                   
   VRHFIN =Mn: 3p4s3d                                                           
   LEXCH  = CA                                                                  
   EATOM  =  2028.0466 eV,  149.0572 Ry                                         
                                                                                
   TITEL  = PAW Mn_pv 02Aug2007                                                 
   LULTRA =        F    use ultrasoft PP ?                                      
   IUNSCR =        1    unscreen: 0-lin 1-nonlin 2-no                           
   RPACOR =    2.080    partial core radius                                     
   POMASS =   54.938; ZVAL   =   13.000    mass and valenz                      
   RCORE  =    2.300    outmost cutoff radius                                   
   RWIGS  =    2.500; RWIGS  =    1.323    wigner-seitz radius (au A)           
   ENMAX  =  269.944; ENMIN  =  202.458 eV                                      
   ICORE  =        3    local potential                                         
   LCOR   =        T    correct aug charges                                     
   LPAW   =        T    paw PP                                                  
   EAUG   =  569.085                                                            
   DEXC   =    0.000                                                            
   RMAX   =    2.343    core radius for proj-oper                               
   RAUG   =    1.300    factor for augmentation sphere                          
   RDEP   =    2.338    radius for radial grids                                 
   RDEPT  =    1.798    core radius for aug-charge                              
                                                                                
   Atomic configuration                                                         
    8 entries                                                                   
     n  l   j            E        occ.                                          
     1  0  0.50     -6393.6057   2.0000                                         
     2  0  0.50      -735.9993   2.0000                                         
     2  1  1.50      -624.3417   6.0000                                         
     3  0  0.50       -80.9782   2.0000                                         
     3  1  1.50       -50.3144   6.0000                                         
     3  2  2.50        -3.6171   6.0000                                         
     4  0  0.50        -4.3304   1.0000                                         
     4  3  2.50        -1.3606   0.0000                                         
   Description                                                                  
     l       E           TYP  RCUT    TYP  RCUT                                 
     1    -50.3143634     23  2.000                                             
     1     -1.3605826     23  2.000                                             
     2     -3.6171470     23  2.300                                             
     2     -4.9777296     23  2.300                                             
     0     -4.3303688     23  2.300                                             
     0      7.3408788     23  2.300                                             
     3      9.5240782     23  2.300                                             
  local pseudopotential read in
  partial core-charges read in
  partial kinetic energy density read in
  atomic valenz-charges read in
  non local Contribution for L=           1  read in
    real space projection operators read in
  non local Contribution for L=           1  read in
    real space projection operators read in
  non local Contribution for L=           2  read in
    real space projection operators read in
  non local Contribution for L=           2  read in
    real space projection operators read in
  non local Contribution for L=           0  read in
    real space projection operators read in
  non local Contribution for L=           0  read in
    real space projection operators read in
    PAW grid and wavefunctions read in
 
   number of l-projection  operators is LMAX  =           6
   number of lm-projection operators is LMMAX =          18
 
 POTCAR:    PAW F 31May2000                       
   VRHFIN =F: s2p5                                                              
   LEXCH  = CA                                                                  
   EATOM  =   658.3685 eV,   48.3887 Ry                                         
                                                                                
   TITEL  = PAW F 31May2000                                                     
   LULTRA =        F    use ultrasoft PP ?                                      
   IUNSCR =        1    unscreen: 0-lin 1-nonlin 2-no                           
   RPACOR =    1.200    partial core radius                                     
   POMASS =   18.998; ZVAL   =    7.000    mass and valenz                      
   RCORE  =    1.520    outmost cutoff radius                                   
   RWIGS  =    1.500; RWIGS  =    0.794    wigner-seitz radius (au A)           
   ENMAX  =  400.000; ENMIN  =  300.000 eV                                      
   ICORE  =        2    local potential                                         
   LCOR   =        T    correct aug charges                                     
   LPAW   =        T    paw PP                                                  
   EAUG   =  613.614                                                            
   DEXC   =    0.000                                                            
   RMAX   =    1.555    core radius for proj-oper                               
   RAUG   =    1.300    factor for augmentation sphere                          
   RDEP   =    1.539    radius for radial grids                                 
   RDEPT  =    1.299    core radius for aug-charge                              
                                                                                
   Atomic configuration                                                         
    4 entries                                                                   
     n  l   j            E        occ.                                          
     1  0  0.50      -658.3386   2.0000                                         
     2  0  0.50       -29.6221   2.0000                                         
     2  1  0.50       -11.2952   5.0000                                         
     3  2  1.50       -12.2452   0.0000                                         
   Description                                                                  
     l       E           TYP  RCUT    TYP  RCUT                                 
     0    -29.6221019     23  1.200                                             
     0     -9.5240782     23  1.200                                             
     1    -11.2951545     23  1.520                                             
     1      1.3605826     23  1.520                                             
     2    -12.2452434      7  1.500                                             
  local pseudopotential read in
  partial core-charges read in
  partial kinetic energy density read in
  kinetic energy density of atom read in
  atomic valenz-charges read in
  non local Contribution for L=           0  read in
    real space projection operators read in
  non local Contribution for L=           0  read in
    real space projection operators read in
  non local Contribution for L=           1  read in
    real space projection operators read in
  non local Contribution for L=           1  read in
    real space projection operators read in
    PAW grid and wavefunctions read in
 
   number of l-projection  operators is LMAX  =           4
   number of lm-projection operators is LMMAX =           8
 
  PAW Mn_pv 02Aug2007                   :
 energy of atom  1       EATOM=-2028.0466
 kinetic energy error for atom=    0.0047 (will be added to EATOM!!)
  PAW F 31May2000                       :
 energy of atom  2       EATOM= -658.3685
 kinetic energy error for atom=    0.0252 (will be added to EATOM!!)
 
 
 POSCAR: Mn  F                                   
  positions in cartesian coordinates
  No initial velocities read in
 exchange correlation table for  LEXCH =        2
   RHO(1)=    0.500       N(1)  =     2000
   RHO(2)=  100.500       N(2)  =     4000
 


--------------------------------------------------------------------------------------------------------


 ion  position               nearest neighbor table
   1  0.500  0.500  0.500-   3 2.05   4 2.05   5 2.09   6 2.09   5 2.09   6 2.09
   2  0.000  0.000  0.000-   5 2.05   6 2.05   3 2.09   4 2.09   3 2.09   4 2.09
   3  0.197  0.803  0.500-   1 2.05   2 2.09   2 2.09
   4  0.803  0.197  0.500-   1 2.05   2 2.09   2 2.09
   5  0.303  0.303  0.000-   2 2.05   1 2.09   1 2.09
   6  0.697  0.697  0.000-   2 2.05   1 2.09   1 2.09
 

IMPORTANT INFORMATION: All symmetrisations will be switched off!
NOSYMM: (Re-)initialisation of all symmetry stuff for point group C_1.

 
 
 KPOINTS: KPOINTS created by Atomic Simulation Env

Automatic generation of k-mesh.
Space group operators:
 irot       det(A)        alpha          n_x          n_y          n_z        tau_x        tau_y        tau_z
    1     1.000000     0.000000     1.000000     0.000000     0.000000     0.000000     0.000000     0.000000
 
 Subroutine IBZKPT returns following result:
 ===========================================
 
 Found     48 irreducible k-points:
 
 Following reciprocal coordinates:
            Coordinates               Weight
  0.125000  0.125000  0.083333      2.000000
  0.375000  0.125000  0.083333      2.000000
 -0.375000  0.125000  0.083333      2.000000
 -0.125000  0.125000  0.083333      2.000000
  0.125000  0.375000  0.083333      2.000000
  0.375000  0.375000  0.083333      2.000000
 -0.375000  0.375000  0.083333      2.000000
 -0.125000  0.375000  0.083333      2.000000
  0.125000 -0.375000  0.083333      2.000000
  0.375000 -0.375000  0.083333      2.000000
 -0.375000 -0.375000  0.083333      2.000000
 -0.125000 -0.375000  0.083333      2.000000
  0.125000 -0.125000  0.083333      2.000000
  0.375000 -0.125000  0.083333      2.000000
 -0.375000 -0.125000  0.083333      2.000000
 -0.125000 -0.125000  0.083333      2.000000
  0.125000  0.125000  0.250000      2.000000
  0.375000  0.125000  0.250000      2.000000
 -0.375000  0.125000  0.250000      2.000000
 -0.125000  0.125000  0.250000      2.000000
  0.125000  0.375000  0.250000      2.000000
  0.375000  0.375000  0.250000      2.000000
 -0.375000  0.375000  0.250000      2.000000
 -0.125000  0.375000  0.250000      2.000000
  0.125000 -0.375000  0.250000      2.000000
  0.375000 -0.375000  0.250000      2.000000
 -0.375000 -0.375000  0.250000      2.000000
 -0.125000 -0.375000  0.250000      2.000000
  0.125000 -0.125000  0.250000      2.000000
  0.375000 -0.125000  0.250000      2.000000
 -0.375000 -0.125000  0.250000      2.000000
 -0.125000 -0.125000  0.250000      2.000000
  0.125000  0.125000  0.416667      2.000000
  0.375000  0.125000  0.416667      2.000000
 -0.375000  0.125000  0.416667      2.000000
 -0.125000  0.125000  0.416667      2.000000
  0.125000  0.375000  0.416667      2.000000
  0.375000  0.375000  0.416667      2.000000
 -0.375000  0.375000  0.416667      2.000000
 -0.125000  0.375000  0.416667      2.000000
  0.125000 -0.375000  0.416667      2.000000
  0.375000 -0.375000  0.416667      2.000000
 -0.375000 -0.375000  0.416667      2.000000
 -0.125000 -0.375000  0.416667      2.000000
  0.125000 -0.125000  0.416667      2.000000
  0.375000 -0.125000  0.416667      2.000000
 -0.375000 -0.125000  0.416667      2.000000
 -0.125000 -0.125000  0.416667      2.000000
 
 Following cartesian coordinates:
            Coordinates               Weight
  0.026146  0.026146  0.025738      2.000000
  0.078438  0.026146  0.025738      2.000000
 -0.078438  0.026146  0.025738      2.000000
 -0.026146  0.026146  0.025738      2.000000
  0.026146  0.078438  0.025738      2.000000
  0.078438  0.078438  0.025738      2.000000
 -0.078438  0.078438  0.025738      2.000000
 -0.026146  0.078438  0.025738      2.000000
  0.026146 -0.078438  0.025738      2.000000
  0.078438 -0.078438  0.025738      2.000000
 -0.078438 -0.078438  0.025738      2.000000
 -0.026146 -0.078438  0.025738      2.000000
  0.026146 -0.026146  0.025738      2.000000
  0.078438 -0.026146  0.025738      2.000000
 -0.078438 -0.026146  0.025738      2.000000
 -0.026146 -0.026146  0.025738      2.000000
  0.026146  0.026146  0.077214      2.000000
  0.078438  0.026146  0.077214      2.000000
 -0.078438  0.026146  0.077214      2.000000
 -0.026146  0.026146  0.077214      2.000000
  0.026146  0.078438  0.077214      2.000000
  0.078438  0.078438  0.077214      2.000000
 -0.078438  0.078438  0.077214      2.000000
 -0.026146  0.078438  0.077214      2.000000
  0.026146 -0.078438  0.077214      2.000000
  0.078438 -0.078438  0.077214      2.000000
 -0.078438 -0.078438  0.077214      2.000000
 -0.026146 -0.078438  0.077214      2.000000
  0.026146 -0.026146  0.077214      2.000000
  0.078438 -0.026146  0.077214      2.000000
 -0.078438 -0.026146  0.077214      2.000000
 -0.026146 -0.026146  0.077214      2.000000
  0.026146  0.026146  0.128691      2.000000
  0.078438  0.026146  0.128691      2.000000
 -0.078438  0.026146  0.128691      2.000000
 -0.026146  0.026146  0.128691      2.000000
  0.026146  0.078438  0.128691      2.000000
  0.078438  0.078438  0.128691      2.000000
 -0.078438  0.078438  0.128691      2.000000
 -0.026146  0.078438  0.128691      2.000000
  0.026146 -0.078438  0.128691      2.000000
  0.078438 -0.078438  0.128691      2.000000
 -0.078438 -0.078438  0.128691      2.000000
 -0.026146 -0.078438  0.128691      2.000000
  0.026146 -0.026146  0.128691      2.000000
  0.078438 -0.026146  0.128691      2.000000
 -0.078438 -0.026146  0.128691      2.000000
 -0.026146 -0.026146  0.128691      2.000000
 
 TETIRR: Found    288 inequivalent tetrahedra from      576


--------------------------------------------------------------------------------------------------------




 Dimension of arrays:
   k-points           NKPTS =     48   k-points in BZ     NKDIM =     48   number of bands    NBANDS=     36
   number of dos      NEDOS =    301   number of ions     NIONS =      6
   non local maximal  LDIM  =      6   non local SUM 2l+1 LMDIM =     18
   total plane-waves  NPLWV =  18000
   max r-space proj   IRMAX =      1   max aug-charges    IRDMAX=  59236
   dimension x,y,z NGX =    30 NGY =   30 NGZ =   20
   dimension x,y,z NGXF=    60 NGYF=   60 NGZF=   40
   support grid    NGXF=   120 NGYF=  120 NGZF=   80
   ions per type =               2   4
   NGX,Y,Z   is equivalent  to a cutoff of  10.43, 10.43, 10.27 a.u.
   NGXF,Y,Z  is equivalent  to a cutoff of  20.86, 20.86, 20.54 a.u.

 SYSTEM =  unknown system                          
 POSCAR =  Mn  F                                   

 Startparameter for this run:
   NWRITE =      2    write-flag & timer
   PREC   = normal    normal or accurate (medium, high low for compatibility)
   ISTART =      1    job   : 0-new  1-cont  2-samecut
   ICHARG =      0    charge: 1-file 2-atom 10-const
   ISPIN  =      2    spin polarized calculation?
   LNONCOLLINEAR =      F non collinear calculations
   LSORBIT =      F    spin-orbit coupling
   INIWAV =      1    electr: 0-lowe 1-rand  2-diag
   LASPH  =      T    aspherical Exc in radial PAW
   METAGGA=      F    non-selfconsistent MetaGGA calc.

 Electronic Relaxation 1
   ENCUT  =  600.0 eV  44.10 Ry    6.64 a.u.   9.55  9.55  6.47*2*pi/ulx,y,z
   ENINI  =  600.0     initial cutoff
   ENAUG  =  613.6 eV  augmentation charge cutoff
   NELM   =     60;   NELMIN=  2; NELMDL=  0     # of ELM steps 
   EDIFF  = 0.1E-07   stopping-criterion for ELM
   LREAL  =      F    real-space projection
   NLSPLINE    = F    spline interpolate recip. space projectors
   LCOMPAT=      F    compatible to vasp.4.4
   GGA_COMPAT  = T    GGA compatible to vasp.4.4-vasp.4.6
   LMAXPAW     = -100 max onsite density
   LMAXMIX     =    4 max onsite mixed and CHGCAR
   VOSKOWN=      0    Vosko Wilk Nusair interpolation
   ROPT   =    0.00000   0.00000
 Ionic relaxation
   EDIFFG = 0.1E-06   stopping-criterion for IOM
   NSW    =      0    number of steps for IOM
   NBLOCK =      1;   KBLOCK =      1    inner block; outer block 
   IBRION =     -1    ionic relax: 0-MD 1-quasi-New 2-CG
   NFREE  =      0    steps in history (QN), initial steepest desc. (CG)
   ISIF   =      2    stress and relaxation
   IWAVPR =     10    prediction:  0-non 1-charg 2-wave 3-comb
   ISYM   =      0    0-nonsym 1-usesym 2-fastsym
   LCORR  =      T    Harris-Foulkes like correction to forces

   POTIM  = 0.5000    time-step for ionic-motion
   TEIN   =    0.0    initial temperature
   TEBEG  =    0.0;   TEEND  =   0.0 temperature during run
   SMASS  =  -3.00    Nose mass-parameter (am)
   estimated Nose-frequenzy (Omega)   =  0.10E-29 period in steps =****** mass=  -0.522E-27a.u.
   SCALEE = 1.0000    scale energy and forces
   NPACO  =    256;   APACO  = 16.0  distance and # of slots for P.C.
   PSTRESS=    0.0 pullay stress

  Mass of Ions in am
   POMASS =  54.94 19.00
  Ionic Valenz
   ZVAL   =  13.00  7.00
  Atomic Wigner-Seitz radii
   RWIGS  =  -1.00 -1.00
  virtual crystal weights 
   VCA    =   1.00  1.00
   NELECT =      54.0000    total number of electrons
   NUPDOWN=      -1.0000    fix difference up-down

 DOS related values:
   EMIN   =  10.00;   EMAX   =-10.00  energy-range for DOS
   EFERMI =   0.00
   ISMEAR =    -5;   SIGMA  =   0.20  broadening in eV -4-tet -1-fermi 0-gaus

 Electronic relaxation 2 (details)
   IALGO  =     38    algorithm
   LDIAG  =      T    sub-space diagonalisation (order eigenvalues)
   LSUBROT=      F    optimize rotation matrix (better conditioning)
   TURBO    =      0    0=normal 1=particle mesh
   IRESTART =      0    0=no restart 2=restart with 2 vectors
   NREBOOT  =      0    no. of reboots
   NMIN     =      0    reboot dimension
   EREF     =   0.00    reference energy to select bands
   IMIX   =      4    mixing-type and parameters
     AMIX     =   0.40;   BMIX     =  1.00
     AMIX_MAG =   1.60;   BMIX_MAG =  1.00
     AMIN     =   0.10
     WC   =   100.;   INIMIX=   1;  MIXPRE=   1;  MAXMIX= -45

 Intra band minimization:
   WEIMIN = 0.0000     energy-eigenvalue tresh-hold
   EBREAK =  0.69E-10  absolut break condition
   DEPER  =   0.30     relativ break condition  

   TIME   =   0.40     timestep for ELM

  volume/ion in A,a.u.               =      12.33        83.23
  Fermi-wavevector in a.u.,A,eV,Ry     =   1.473865  2.785201 29.555629  2.172277
  Thomas-Fermi vector in A             =   2.588706
 
 Write flags
   LWAVE        =      T    write WAVECAR
   LDOWNSAMPLE  =      F    k-point downsampling of WAVECAR
   LCHARG       =      T    write CHGCAR
   LVTOT        =      F    write LOCPOT, total local potential
   LVHAR        =      F    write LOCPOT, Hartree potential only
   LELF         =      F    write electronic localiz. function (ELF)
   LORBIT       =     11    0 simple, 1 ext, 2 COOP (PROOUT), +10 PAW based schemes


 Dipole corrections
   LMONO  =      F    monopole corrections only (constant potential shift)
   LDIPOL =      F    correct potential (dipole corrections)
   IDIPOL =      0    1-x, 2-y, 3-z, 4-all directions 
   EPSILON=  1.0000000 bulk dielectric constant

 LDA+U is selected, type is set to LDAUTYPE =  2
   angular momentum for each species LDAUL =     2   -1
   U (eV)           for each species LDAUU =   2.0  0.0
   J (eV)           for each species LDAUJ =   0.0  0.0
 Exchange correlation treatment:
   GGA     =    --    GGA type
   LEXCH   =     2    internal setting for exchange type
   VOSKOWN=      0    Vosko Wilk Nusair interpolation
   LHFCALC =     F    Hartree Fock is set to
   LHFONE  =     F    Hartree Fock one center treatment
   AEXX    =    0.0000 exact exchange contribution

 Linear response parameters
   LEPSILON=     F    determine dielectric tensor
   LRPA    =     F    only Hartree local field effects (RPA)
   LNABLA  =     F    use nabla operator in PAW spheres
   LVEL    =     F    velocity operator in full k-point grid
   LINTERFAST=   F  fast interpolation
   KINTER  =     0    interpolate to denser k-point grid
   CSHIFT  =0.1000    complex shift for real part using Kramers Kronig
   OMEGAMAX=  -1.0    maximum frequency
   DEG_THRESHOLD= 0.2000000E-02 threshold for treating states as degnerate
   RTIME   =   -0.100 relaxation time in fs
  (WPLASMAI=    0.000 imaginary part of plasma frequency in eV, 0.658/RTIME)
   DFIELD  = 0.0000000 0.0000000 0.0000000 field for delta impulse in time
 
 Orbital magnetization related:
   ORBITALMAG=     F  switch on orbital magnetization
   LCHIMAG   =     F  perturbation theory with respect to B field
   DQ        =  0.001000  dq finite difference perturbation B field
   LLRAUG    =     F  two centre corrections for induced B field



--------------------------------------------------------------------------------------------------------


 Static calculation
 charge density and potential will be updated during run
 spin polarized calculation
 Variant of blocked Davidson
 Davidson routine will perform the subspace rotation
 perform sub-space diagonalisation
    after iterative eigenvector-optimisation
 modified Broyden-mixing scheme, WC =      100.0
 initial mixing is a Kerker type mixing with AMIX =  0.4000 and BMIX =      1.0000
 Hartree-type preconditioning will be used
 using additional bands            9
 reciprocal scheme for non local part
 use partial core corrections
 calculate Harris-corrections to forces 
   (improved forces if not selfconsistent)
 use of overlap-Matrix (Vanderbilt PP)
 Fermi weights with tetrahedron method with Bloechl corrections


--------------------------------------------------------------------------------------------------------


  energy-cutoff  :      600.00
  volume of cell :       74.00
      direct lattice vectors                 reciprocal lattice vectors
     4.780815773  0.000000000  0.000000000     0.209169323  0.000000000  0.000000000
     0.000000000  4.780815773  0.000000000     0.000000000  0.209169323  0.000000000
     0.000000000  0.000000000  3.237734972     0.000000000  0.000000000  0.308857893

  length of vectors
     4.780815773  4.780815773  3.237734972     0.209169323  0.209169323  0.308857893


 
 old parameters found on file WAVECAR:
  energy-cutoff  :      600.00
  volume of cell :       74.00
      direct lattice vectors                 reciprocal lattice vectors
     4.780815773  0.000000000  0.000000000     0.209169323  0.000000000  0.000000000
     0.000000000  4.780815773  0.000000000     0.000000000  0.209169323  0.000000000
     0.000000000  0.000000000  3.237734972     0.000000000  0.000000000  0.308857893

  length of vectors

 
 k-points in units of 2pi/SCALE and weight: KPOINTS created by Atomic Simulation Env
   0.02614617  0.02614617  0.02573816       0.021
   0.07843850  0.02614617  0.02573816       0.021
  -0.07843850  0.02614617  0.02573816       0.021
  -0.02614617  0.02614617  0.02573816       0.021
   0.02614617  0.07843850  0.02573816       0.021
   0.07843850  0.07843850  0.02573816       0.021
  -0.07843850  0.07843850  0.02573816       0.021
  -0.02614617  0.07843850  0.02573816       0.021
   0.02614617 -0.07843850  0.02573816       0.021
   0.07843850 -0.07843850  0.02573816       0.021
  -0.07843850 -0.07843850  0.02573816       0.021
  -0.02614617 -0.07843850  0.02573816       0.021
   0.02614617 -0.02614617  0.02573816       0.021
   0.07843850 -0.02614617  0.02573816       0.021
  -0.07843850 -0.02614617  0.02573816       0.021
  -0.02614617 -0.02614617  0.02573816       0.021
   0.02614617  0.02614617  0.07721447       0.021
   0.07843850  0.02614617  0.07721447       0.021
  -0.07843850  0.02614617  0.07721447       0.021
  -0.02614617  0.02614617  0.07721447       0.021
   0.02614617  0.07843850  0.07721447       0.021
   0.07843850  0.07843850  0.07721447       0.021
  -0.07843850  0.07843850  0.07721447       0.021
  -0.02614617  0.07843850  0.07721447       0.021
   0.02614617 -0.07843850  0.07721447       0.021
   0.07843850 -0.07843850  0.07721447       0.021
  -0.07843850 -0.07843850  0.07721447       0.021
  -0.02614617 -0.07843850  0.07721447       0.021
   0.02614617 -0.02614617  0.07721447       0.021
   0.07843850 -0.02614617  0.07721447       0.021
  -0.07843850 -0.02614617  0.07721447       0.021
  -0.02614617 -0.02614617  0.07721447       0.021
   0.02614617  0.02614617  0.12869079       0.021
   0.07843850  0.02614617  0.12869079       0.021
  -0.07843850  0.02614617  0.12869079       0.021
  -0.02614617  0.02614617  0.12869079       0.021
   0.02614617  0.07843850  0.12869079       0.021
   0.07843850  0.07843850  0.12869079       0.021
  -0.07843850  0.07843850  0.12869079       0.021
  -0.02614617  0.07843850  0.12869079       0.021
   0.02614617 -0.07843850  0.12869079       0.021
   0.07843850 -0.07843850  0.12869079       0.021
  -0.07843850 -0.07843850  0.12869079       0.021
  -0.02614617 -0.07843850  0.12869079       0.021
   0.02614617 -0.02614617  0.12869079       0.021
   0.07843850 -0.02614617  0.12869079       0.021
  -0.07843850 -0.02614617  0.12869079       0.021
  -0.02614617 -0.02614617  0.12869079       0.021
 
 k-points in reciprocal lattice and weights: KPOINTS created by Atomic Simulation Env
   0.12500000  0.12500000  0.08333333       0.021
   0.37500000  0.12500000  0.08333333       0.021
  -0.37500000  0.12500000  0.08333333       0.021
  -0.12500000  0.12500000  0.08333333       0.021
   0.12500000  0.37500000  0.08333333       0.021
   0.37500000  0.37500000  0.08333333       0.021
  -0.37500000  0.37500000  0.08333333       0.021
  -0.12500000  0.37500000  0.08333333       0.021
   0.12500000 -0.37500000  0.08333333       0.021
   0.37500000 -0.37500000  0.08333333       0.021
  -0.37500000 -0.37500000  0.08333333       0.021
  -0.12500000 -0.37500000  0.08333333       0.021
   0.12500000 -0.12500000  0.08333333       0.021
   0.37500000 -0.12500000  0.08333333       0.021
  -0.37500000 -0.12500000  0.08333333       0.021
  -0.12500000 -0.12500000  0.08333333       0.021
   0.12500000  0.12500000  0.25000000       0.021
   0.37500000  0.12500000  0.25000000       0.021
  -0.37500000  0.12500000  0.25000000       0.021
  -0.12500000  0.12500000  0.25000000       0.021
   0.12500000  0.37500000  0.25000000       0.021
   0.37500000  0.37500000  0.25000000       0.021
  -0.37500000  0.37500000  0.25000000       0.021
  -0.12500000  0.37500000  0.25000000       0.021
   0.12500000 -0.37500000  0.25000000       0.021
   0.37500000 -0.37500000  0.25000000       0.021
  -0.37500000 -0.37500000  0.25000000       0.021
  -0.12500000 -0.37500000  0.25000000       0.021
   0.12500000 -0.12500000  0.25000000       0.021
   0.37500000 -0.12500000  0.25000000       0.021
  -0.37500000 -0.12500000  0.25000000       0.021
  -0.12500000 -0.12500000  0.25000000       0.021
   0.12500000  0.12500000  0.41666667       0.021
   0.37500000  0.12500000  0.41666667       0.021
  -0.37500000  0.12500000  0.41666667       0.021
  -0.12500000  0.12500000  0.41666667       0.021
   0.12500000  0.37500000  0.41666667       0.021
   0.37500000  0.37500000  0.41666667       0.021
  -0.37500000  0.37500000  0.41666667       0.021
  -0.12500000  0.37500000  0.41666667       0.021
   0.12500000 -0.37500000  0.41666667       0.021
   0.37500000 -0.37500000  0.41666667       0.021
  -0.37500000 -0.37500000  0.41666667       0.021
  -0.12500000 -0.37500000  0.41666667       0.021
   0.12500000 -0.12500000  0.41666667       0.021
   0.37500000 -0.12500000  0.41666667       0.021
  -0.37500000 -0.12500000  0.41666667       0.021
  -0.12500000 -0.12500000  0.41666667       0.021
 
 position of ions in fractional coordinates (direct lattice) 
   0.50000000  0.50000000  0.50000000
   0.00000000  0.00000000  0.00000000
   0.19652090  0.80347910  0.50000000
   0.80347910  0.19652090  0.50000000
   0.30347910  0.30347910  0.00000000
   0.69652090  0.69652090  0.00000000
 
 position of ions in cartesian coordinates  (Angst):
   2.39040789  2.39040789  1.61886749
   0.00000000  0.00000000  0.00000000
   0.93953022  3.84128555  1.61886749
   3.84128555  0.93953022  1.61886749
   1.45087767  1.45087767  0.00000000
   3.32993811  3.32993811  0.00000000
 


--------------------------------------------------------------------------------------------------------


 k-point  1 :   0.1250 0.1250 0.0833  plane waves:    2485
 k-point  2 :   0.3750 0.1250 0.0833  plane waves:    2472
 k-point  3 :  -0.3750 0.1250 0.0833  plane waves:    2472
 k-point  4 :  -0.1250 0.1250 0.0833  plane waves:    2485
 k-point  5 :   0.1250 0.3750 0.0833  plane waves:    2472
 k-point  6 :   0.3750 0.3750 0.0833  plane waves:    2471
 k-point  7 :  -0.3750 0.3750 0.0833  plane waves:    2471
 k-point  8 :  -0.1250 0.3750 0.0833  plane waves:    2472
 k-point  9 :   0.1250-0.3750 0.0833  plane waves:    2472
 k-point 10 :   0.3750-0.3750 0.0833  plane waves:    2471
 k-point 11 :  -0.3750-0.3750 0.0833  plane waves:    2471
 k-point 12 :  -0.1250-0.3750 0.0833  plane waves:    2472
 k-point 13 :   0.1250-0.1250 0.0833  plane waves:    2485
 k-point 14 :   0.3750-0.1250 0.0833  plane waves:    2472
 k-point 15 :  -0.3750-0.1250 0.0833  plane waves:    2472
 k-point 16 :  -0.1250-0.1250 0.0833  plane waves:    2485
 k-point 17 :   0.1250 0.1250 0.2500  plane waves:    2485
 k-point 18 :   0.3750 0.1250 0.2500  plane waves:    2469
 k-point 19 :  -0.3750 0.1250 0.2500  plane waves:    2469
 k-point 20 :  -0.1250 0.1250 0.2500  plane waves:    2485
 k-point 21 :   0.1250 0.3750 0.2500  plane waves:    2469
 k-point 22 :   0.3750 0.3750 0.2500  plane waves:    2460
 k-point 23 :  -0.3750 0.3750 0.2500  plane waves:    2460
 k-point 24 :  -0.1250 0.3750 0.2500  plane waves:    2469
 k-point 25 :   0.1250-0.3750 0.2500  plane waves:    2469
 k-point 26 :   0.3750-0.3750 0.2500  plane waves:    2460
 k-point 27 :  -0.3750-0.3750 0.2500  plane waves:    2460
 k-point 28 :  -0.1250-0.3750 0.2500  plane waves:    2469
 k-point 29 :   0.1250-0.1250 0.2500  plane waves:    2485
 k-point 30 :   0.3750-0.1250 0.2500  plane waves:    2469
 k-point 31 :  -0.3750-0.1250 0.2500  plane waves:    2469
 k-point 32 :  -0.1250-0.1250 0.2500  plane waves:    2485
 k-point 33 :   0.1250 0.1250 0.4167  plane waves:    2458
 k-point 34 :   0.3750 0.1250 0.4167  plane waves:    2456
 k-point 35 :  -0.3750 0.1250 0.4167  plane waves:    2456
 k-point 36 :  -0.1250 0.1250 0.4167  plane waves:    2458
 k-point 37 :   0.1250 0.3750 0.4167  plane waves:    2456
 k-point 38 :   0.3750 0.3750 0.4167  plane waves:    2468
 k-point 39 :  -0.3750 0.3750 0.4167  plane waves:    2468
 k-point 40 :  -0.1250 0.3750 0.4167  plane waves:    2456
 k-point 41 :   0.1250-0.3750 0.4167  plane waves:    2456
 k-point 42 :   0.3750-0.3750 0.4167  plane waves:    2468
 k-point 43 :  -0.3750-0.3750 0.4167  plane waves:    2468
 k-point 44 :  -0.1250-0.3750 0.4167  plane waves:    2456
 k-point 45 :   0.1250-0.1250 0.4167  plane waves:    2458
 k-point 46 :   0.3750-0.1250 0.4167  plane waves:    2456
 k-point 47 :  -0.3750-0.1250 0.4167  plane waves:    2456
 k-point 48 :  -0.1250-0.1250 0.4167  plane waves:    2458

 maximum and minimum number of plane-waves per node :      2485     2456

 maximum number of plane-waves:      2485
 maximum index in each direction: 
   IXMAX=    9   IYMAX=    9   IZMAX=    6
   IXMIN=   -9   IYMIN=   -9   IZMIN=   -6


 serial   3D FFT for wavefunctions
 parallel 3D FFT for charge:
    minimum data exchange during FFTs selected (reduces bandwidth)


 total amount of memory used by VASP MPI-rank0    81105. kBytes
=======================================================================

   base      :      30000. kBytes
   nonl-proj :      34744. kBytes
   fftplans  :       1875. kBytes
   grid      :       2467. kBytes
   one-center:        186. kBytes
   wavefun   :      11833. kBytes
 
     INWAV:  cpu time    0.4239: real time    0.4239
 Broyden mixing: mesh for mixing (old mesh)
   NGX = 19   NGY = 19   NGZ = 13
  (NGX  = 60   NGY  = 60   NGZ  = 40)
  gives a total of   4693 points

 charge density for first step will be calculated from the start-wavefunctions


--------------------------------------------------------------------------------------------------------


 Maximum index for augmentation-charges         4475 (set IRDMAX)


--------------------------------------------------------------------------------------------------------


 initial charge from wavefunction
 First call to EWALD:  gamma=   0.422
 Maximum number of real-space cells 2x 2x 3
 Maximum number of reciprocal cells 3x 3x 2

    FEWALD:  cpu time    0.0013: real time    0.0013


--------------------------------------- Iteration      1(   1)  ---------------------------------------


    POTLOK:  cpu time    0.0063: real time    0.0063
    SETDIJ:  cpu time    3.0479: real time    3.0479
atom =   1  type =  1  l = 2
 
 onsite density matrix
 
spin component  1
 
  0.1436  0.0111 -0.0001  0.0112  0.0000
  0.0111  0.1017  0.0094  0.0419 -0.0143
 -0.0001  0.0094  0.0763  0.0093  0.0014
  0.0112  0.0419  0.0093  0.1003  0.0147
  0.0000 -0.0143  0.0014  0.0147  0.1000
 
spin component  2
 
  0.9175 -0.0047  0.0289 -0.0048 -0.0001
 -0.0047  0.9068 -0.0037  0.0142  0.0053
  0.0289 -0.0037  0.9178 -0.0035 -0.0004
 -0.0048  0.0142 -0.0035  0.9074 -0.0055
 -0.0001  0.0053 -0.0004 -0.0055  0.8779
 
 occupancies and eigenvectors
 
  o =  0.0505  v =  0.0020  0.6485 -0.0187 -0.6568  0.3845  0.0000  0.0000  0.0000  0.0000  0.0000      0.0000  0.0000  0.0000  0.0000  0.0000  0.0000  0.0000  0.0000  0.0000  0.0000
  o =  0.0736  v =  0.0456 -0.1188  0.9785 -0.1600 -0.0257  0.0000  0.0000  0.0000  0.0000  0.0000      0.0000  0.0000  0.0000  0.0000  0.0000  0.0000  0.0000  0.0000  0.0000  0.0000
  o =  0.1086  v =  0.0048 -0.2817  0.0325  0.2611  0.9227  0.0000  0.0000  0.0000  0.0000  0.0000      0.0000  0.0000  0.0000  0.0000  0.0000  0.0000  0.0000  0.0000  0.0000  0.0000
  o =  0.1291  v =  0.7258 -0.4751 -0.1683 -0.4681 -0.0104  0.0000  0.0000  0.0000  0.0000  0.0000      0.0000  0.0000  0.0000  0.0000  0.0000  0.0000  0.0000  0.0000  0.0000  0.0000
  o =  0.1600  v = -0.6864 -0.5102 -0.1128 -0.5057 -0.0051  0.0000  0.0000  0.0000  0.0000  0.0000      0.0000  0.0000  0.0000  0.0000  0.0000  0.0000  0.0000  0.0000  0.0000  0.0000
  o =  0.8747  v =  0.0000  0.0000  0.0000  0.0000  0.0000 -0.0050 -0.2713  0.0119  0.2730  0.9229      0.0000  0.0000  0.0000  0.0000  0.0000  0.0000  0.0000  0.0000  0.0000  0.0000
  o =  0.8887  v =  0.0000  0.0000  0.0000  0.0000  0.0000  0.7119  0.0082 -0.7009  0.0432  0.0025      0.0000  0.0000  0.0000  0.0000  0.0000  0.0000  0.0000  0.0000  0.0000  0.0000
  o =  0.8961  v =  0.0000  0.0000  0.0000  0.0000  0.0000 -0.0198 -0.6630  0.0103  0.6416 -0.3850      0.0000  0.0000  0.0000  0.0000  0.0000  0.0000  0.0000  0.0000  0.0000  0.0000
  o =  0.9188  v =  0.0000  0.0000  0.0000  0.0000  0.0000  0.1776  0.6670  0.2304  0.6858 -0.0088      0.0000  0.0000  0.0000  0.0000  0.0000  0.0000  0.0000  0.0000  0.0000  0.0000
  o =  0.9491  v =  0.0000  0.0000  0.0000  0.0000  0.0000 -0.6791  0.2043 -0.6749  0.2039  0.0048      0.0000  0.0000  0.0000  0.0000  0.0000  0.0000  0.0000  0.0000  0.0000  0.0000
atom =   2  type =  1  l = 2
 
 onsite density matrix
 
spin component  1
 
  0.9200 -0.0038 -0.0120 -0.0040  0.0001
 -0.0038  0.9069 -0.0026 -0.0315  0.0053
 -0.0120 -0.0026  0.9194 -0.0024 -0.0005
 -0.0040 -0.0315 -0.0024  0.9074 -0.0055
  0.0001  0.0053 -0.0005 -0.0055  0.8772
 
spin component  2
 
  0.1484  0.0132 -0.0570  0.0135  0.0001
  0.0132  0.1000  0.0094  0.0072 -0.0145
 -0.0570  0.0094  0.0770  0.0091  0.0013
  0.0135  0.0072  0.0091  0.0986  0.0147
  0.0001 -0.0145  0.0013  0.0147  0.1010
 
 occupancies and eigenvectors
 
  o =  0.0391  v =  0.0000  0.0000  0.0000  0.0000  0.0000 -0.4813  0.2122 -0.8252  0.2047  0.0193      0.0000  0.0000  0.0000  0.0000  0.0000  0.0000  0.0000  0.0000  0.0000  0.0000
  o =  0.0754  v =  0.0000  0.0000  0.0000  0.0000  0.0000  0.0111  0.5291  0.0027 -0.5705  0.6281      0.0000  0.0000  0.0000  0.0000  0.0000  0.0000  0.0000  0.0000  0.0000  0.0000
  o =  0.1114  v =  0.0000  0.0000  0.0000  0.0000  0.0000  0.0206  0.6832  0.3260  0.6529  0.0157      0.0000  0.0000  0.0000  0.0000  0.0000  0.0000  0.0000  0.0000  0.0000  0.0000
  o =  0.1177  v =  0.0000  0.0000  0.0000  0.0000  0.0000  0.0097 -0.4456  0.0080  0.4433  0.7777      0.0000  0.0000  0.0000  0.0000  0.0000  0.0000  0.0000  0.0000  0.0000  0.0000
  o =  0.1815  v =  0.0000  0.0000  0.0000  0.0000  0.0000 -0.8762 -0.0987  0.4611 -0.0995  0.0063      0.0000  0.0000  0.0000  0.0000  0.0000  0.0000  0.0000  0.0000  0.0000  0.0000
  o =  0.8744  v = -0.1504 -0.6887 -0.1185 -0.6954 -0.0739  0.0000  0.0000  0.0000  0.0000  0.0000      0.0000  0.0000  0.0000  0.0000  0.0000  0.0000  0.0000  0.0000  0.0000  0.0000
  o =  0.8763  v = -0.0103 -0.1387  0.0011  0.0343  0.9897  0.0000  0.0000  0.0000  0.0000  0.0000      0.0000  0.0000  0.0000  0.0000  0.0000  0.0000  0.0000  0.0000  0.0000  0.0000
  o =  0.9089  v = -0.6779  0.1342 -0.7102  0.1339  0.0079  0.0000  0.0000  0.0000  0.0000  0.0000      0.0000  0.0000  0.0000  0.0000  0.0000  0.0000  0.0000  0.0000  0.0000  0.0000
  o =  0.9318  v =  0.7191 -0.0418 -0.6936  0.0037  0.0023  0.0000  0.0000  0.0000  0.0000  0.0000      0.0000  0.0000  0.0000  0.0000  0.0000  0.0000  0.0000  0.0000  0.0000  0.0000
  o =  0.9396  v =  0.0229  0.6977 -0.0216 -0.7051  0.1225  0.0000  0.0000  0.0000  0.0000  0.0000      0.0000  0.0000  0.0000  0.0000  0.0000  0.0000  0.0000  0.0000  0.0000  0.0000
     EDDAV:  cpu time    2.2370: real time    2.2552
 BZINTS: Fermi energy:  4.815545; 54.000000 electrons
         Band energy:-742.256455;  BLOECHL correction:  0.000000
       DOS:  cpu time    0.0080: real time    0.0080
    CHARGE:  cpu time    0.0963: real time    0.0963
    MIXING:  cpu time    0.0005: real time    0.0005
    --------------------------------------------
      LOOP:  cpu time    5.3960: real time    5.4142

 eigenvalue-minimisations  :  8856
 total energy-change (2. order) :-0.2192575E+02  (-0.1081198E+03)
 number of electron      53.9999996 magnetization      -0.0000000
 augmentation part       20.6228492 magnetization      -0.0061729

 Broyden mixing:
  rms(total) = 0.21386E+01    rms(broyden)= 0.21385E+01
  rms(prec ) = 0.23133E+01
  weight for this iteration     100.00

 Free energy of the ion-electron system (eV)
  ---------------------------------------------------
  alpha Z        PSCENC =       205.88318671
  Ewald energy   TEWEN  =     -4267.23927425
  -Hartree energ DENC   =     -2064.36148855
  -exchange      EXHF   =         0.00000000
  -V(xc)+E(xc)   XCENC  =       294.15947673
  PAW double counting   =      7534.51212842    -7672.08010474
  entropy T*S    EENTRO =         0.00000000
  eigenvalues    EBANDS =      -742.25645475
  atomic energy  EATOM  =      6689.45677594
  Solvation  Ediel_sol  =         0.00000000
  ---------------------------------------------------
  free energy    TOTEN  =       -21.92575449 eV

  energy without entropy =      -21.92575449  energy(sigma->0) =      -21.92575449


--------------------------------------------------------------------------------------------------------




--------------------------------------- Iteration      1(   2)  ---------------------------------------


    POTLOK:  cpu time    0.0048: real time    0.0048
    SETDIJ:  cpu time    3.0482: real time    3.0482
atom =   1  type =  1  l = 2
 
 onsite density matrix
 
spin component  1
 
  0.0461 -0.0007  0.0412 -0.0009 -0.0000
 -0.0007  0.0339 -0.0004  0.0290  0.0015
  0.0412 -0.0004  0.0346 -0.0005 -0.0003
 -0.0009  0.0290 -0.0005  0.0337 -0.0023
 -0.0000  0.0015 -0.0003 -0.0023 -0.0156
 
spin component  2
 
  1.0025  0.0040 -0.0023  0.0044  0.0000
  0.0040  0.9782  0.0045  0.0234 -0.0062
 -0.0023  0.0045  0.9646  0.0047  0.0007
  0.0044  0.0234  0.0047  0.9780  0.0072
  0.0000 -0.0062  0.0007  0.0072  0.9900
 
 occupancies and eigenvectors
 
  o = -0.0159  v =  0.0075  0.0860 -0.0119 -0.0954 -0.9916  0.0000  0.0000  0.0000  0.0000  0.0000      0.0000  0.0000  0.0000  0.0000  0.0000  0.0000  0.0000  0.0000  0.0000  0.0000
  o = -0.0013  v =  0.6563 -0.0003 -0.7543  0.0060  0.0134  0.0000  0.0000  0.0000  0.0000  0.0000      0.0000  0.0000  0.0000  0.0000  0.0000  0.0000  0.0000  0.0000  0.0000  0.0000
  o =  0.0051  v =  0.0006  0.7012 -0.0031 -0.7013  0.1283  0.0000  0.0000  0.0000  0.0000  0.0000      0.0000  0.0000  0.0000  0.0000  0.0000  0.0000  0.0000  0.0000  0.0000  0.0000
  o =  0.0627  v =  0.0491  0.7062  0.0479  0.7046 -0.0068  0.0000  0.0000  0.0000  0.0000  0.0000      0.0000  0.0000  0.0000  0.0000  0.0000  0.0000  0.0000  0.0000  0.0000  0.0000
  o =  0.0820  v = -0.7528  0.0472 -0.6546  0.0497  0.0014  0.0000  0.0000  0.0000  0.0000  0.0000      0.0000  0.0000  0.0000  0.0000  0.0000  0.0000  0.0000  0.0000  0.0000  0.0000
  o =  0.9523  v =  0.0000  0.0000  0.0000  0.0000  0.0000 -0.0051 -0.6819 -0.0002  0.6898 -0.2430      0.0000  0.0000  0.0000  0.0000  0.0000  0.0000  0.0000  0.0000  0.0000  0.0000
  o =  0.9632  v =  0.0000  0.0000  0.0000  0.0000  0.0000  0.0856 -0.1250  0.9797 -0.1297 -0.0201      0.0000  0.0000  0.0000  0.0000  0.0000  0.0000  0.0000  0.0000  0.0000  0.0000
  o =  0.9923  v =  0.0000  0.0000  0.0000  0.0000  0.0000  0.0532 -0.2458 -0.0035  0.0967  0.9630      0.0000  0.0000  0.0000  0.0000  0.0000  0.0000  0.0000  0.0000  0.0000  0.0000
  o =  0.9974  v =  0.0000  0.0000  0.0000  0.0000  0.0000  0.7016 -0.4657 -0.1883 -0.4935 -0.1087      0.0000  0.0000  0.0000  0.0000  0.0000  0.0000  0.0000  0.0000  0.0000  0.0000
  o =  1.0082  v =  0.0000  0.0000  0.0000  0.0000  0.0000  0.7054  0.4920  0.0687  0.5044  0.0361      0.0000  0.0000  0.0000  0.0000  0.0000  0.0000  0.0000  0.0000  0.0000  0.0000
atom =   2  type =  1  l = 2
 
 onsite density matrix
 
spin component  1
 
  1.0005  0.0069 -0.0264  0.0071 -0.0001
  0.0069  0.9816  0.0071  0.0015 -0.0086
 -0.0264  0.0071  0.9646  0.0069  0.0008
  0.0071  0.0015  0.0069  0.9802  0.0090
 -0.0001 -0.0086  0.0008  0.0090  0.9851
 
spin component  2
 
  0.0517 -0.0027 -0.0358 -0.0027  0.0002
 -0.0027  0.0291 -0.0009 -0.0339  0.0032
 -0.0358 -0.0009  0.0364 -0.0009 -0.0004
 -0.0027 -0.0339 -0.0009  0.0301 -0.0037
  0.0002  0.0032 -0.0004 -0.0037 -0.0126
 
 occupancies and eigenvectors
 
  o = -0.0129  v =  0.0000  0.0000  0.0000  0.0000  0.0000 -0.0056  0.0166 -0.0127 -0.0734 -0.9971      0.0000  0.0000  0.0000  0.0000  0.0000  0.0000  0.0000  0.0000  0.0000  0.0000
  o = -0.0052  v =  0.0000  0.0000  0.0000  0.0000  0.0000  0.1810  0.6894  0.1847  0.6754 -0.0416      0.0000  0.0000  0.0000  0.0000  0.0000  0.0000  0.0000  0.0000  0.0000  0.0000
  o =  0.0083  v =  0.0000  0.0000  0.0000  0.0000  0.0000 -0.6017  0.1838 -0.7560  0.1807  0.0027      0.0000  0.0000  0.0000  0.0000  0.0000  0.0000  0.0000  0.0000  0.0000  0.0000
  o =  0.0638  v =  0.0000  0.0000  0.0000  0.0000  0.0000 -0.0007  0.7003  0.0011 -0.7110  0.0639      0.0000  0.0000  0.0000  0.0000  0.0000  0.0000  0.0000  0.0000  0.0000  0.0000
  o =  0.0807  v =  0.0000  0.0000  0.0000  0.0000  0.0000  0.7779 -0.0175 -0.6278 -0.0186  0.0047      0.0000  0.0000  0.0000  0.0000  0.0000  0.0000  0.0000  0.0000  0.0000  0.0000
  o =  0.9457  v = -0.4570  0.2421 -0.8201  0.2445  0.0129  0.0000  0.0000  0.0000  0.0000  0.0000      0.0000  0.0000  0.0000  0.0000  0.0000  0.0000  0.0000  0.0000  0.0000  0.0000
  o =  0.9695  v = -0.0075 -0.5183  0.0162  0.5864 -0.6223  0.0000  0.0000  0.0000  0.0000  0.0000      0.0000  0.0000  0.0000  0.0000  0.0000  0.0000  0.0000  0.0000  0.0000  0.0000
  o =  0.9868  v = -0.0404 -0.6867 -0.3672 -0.6255 -0.0265  0.0000  0.0000  0.0000  0.0000  0.0000      0.0000  0.0000  0.0000  0.0000  0.0000  0.0000  0.0000  0.0000  0.0000  0.0000
  o =  0.9950  v =  0.0170 -0.4378  0.0057  0.4431  0.7821  0.0000  0.0000  0.0000  0.0000  0.0000      0.0000  0.0000  0.0000  0.0000  0.0000  0.0000  0.0000  0.0000  0.0000  0.0000
  o =  1.0150  v = -0.8884 -0.0973  0.4385 -0.0939  0.0148  0.0000  0.0000  0.0000  0.0000  0.0000      0.0000  0.0000  0.0000  0.0000  0.0000  0.0000  0.0000  0.0000  0.0000  0.0000
     EDDAV:  cpu time    1.9138: real time    1.9139
 BZINTS: Fermi energy:  3.177591; 54.000000 electrons
         Band energy:-728.925851;  BLOECHL correction:  0.000000
       DOS:  cpu time    0.0047: real time    0.0047
    CHARGE:  cpu time    0.0969: real time    0.0969
    MIXING:  cpu time    0.0005: real time    0.0005
    --------------------------------------------
      LOOP:  cpu time    5.0690: real time    5.0691

 eigenvalue-minimisations  :  7512
 total energy-change (2. order) :-0.1896614E+02  (-0.2003812E+02)
 number of electron      53.9999996 magnetization      -0.0000000
 augmentation part       19.8617630 magnetization       0.0001718

 Broyden mixing:
  rms(total) = 0.21711E+01    rms(broyden)= 0.21711E+01
  rms(prec ) = 0.22084E+01
  weight for this iteration     100.00

 eigenvalues of (default mixing * dielectric matrix)
  average eigenvalue GAMMA=   0.2869
  0.2869

 Free energy of the ion-electron system (eV)
  ---------------------------------------------------
  alpha Z        PSCENC =       205.88318671
  Ewald energy   TEWEN  =     -4267.23927425
  -Hartree energ DENC   =     -2096.35395522
  -exchange      EXHF   =         0.00000000
  -V(xc)+E(xc)   XCENC  =       296.08372068
  PAW double counting   =      7383.17298873    -7522.96948809
  entropy T*S    EENTRO =         0.00000000
  eigenvalues    EBANDS =      -728.92585065
  atomic energy  EATOM  =      6689.45677594
  Solvation  Ediel_sol  =         0.00000000
  ---------------------------------------------------
  free energy    TOTEN  =       -40.89189615 eV

  energy without entropy =      -40.89189615  energy(sigma->0) =      -40.89189615


--------------------------------------------------------------------------------------------------------




--------------------------------------- Iteration      1(   3)  ---------------------------------------


    POTLOK:  cpu time    0.0048: real time    0.0048
    SETDIJ:  cpu time    3.0556: real time    3.0556
atom =   1  type =  1  l = 2
 
 onsite density matrix
 
spin component  1
 
  0.0666  0.0010  0.0266  0.0011  0.0000
  0.0010  0.0490  0.0014  0.0276 -0.0016
  0.0266  0.0014  0.0448  0.0014  0.0001
  0.0011  0.0276  0.0014  0.0489  0.0016
  0.0000 -0.0016  0.0001  0.0016  0.0219
 
spin component  2
 
  0.9755  0.0015  0.0161  0.0017  0.0000
  0.0015  0.9612  0.0018  0.0233 -0.0018
  0.0161  0.0018  0.9522  0.0018  0.0002
  0.0017  0.0233  0.0018  0.9611  0.0020
  0.0000 -0.0018  0.0002  0.0020  0.9480
 
 occupancies and eigenvectors
 
  o =  0.0193  v =  0.0056  0.5272 -0.0093 -0.5283  0.6655  0.0000  0.0000  0.0000  0.0000  0.0000      0.0000  0.0000  0.0000  0.0000  0.0000  0.0000  0.0000  0.0000  0.0000  0.0000
  o =  0.0240  v =  0.0142 -0.4700 -0.0235  0.4712  0.7459  0.0000  0.0000  0.0000  0.0000  0.0000      0.0000  0.0000  0.0000  0.0000  0.0000  0.0000  0.0000  0.0000  0.0000  0.0000
  o =  0.0270  v =  0.5566  0.0190 -0.8301  0.0046 -0.0277  0.0000  0.0000  0.0000  0.0000  0.0000      0.0000  0.0000  0.0000  0.0000  0.0000  0.0000  0.0000  0.0000  0.0000  0.0000
  o =  0.0759  v = -0.2274  0.6828 -0.1331  0.6814  0.0000  0.0000  0.0000  0.0000  0.0000  0.0000      0.0000  0.0000  0.0000  0.0000  0.0000  0.0000  0.0000  0.0000  0.0000  0.0000
  o =  0.0851  v = -0.7989 -0.1859 -0.5409 -0.1861 -0.0013  0.0000  0.0000  0.0000  0.0000  0.0000      0.0000  0.0000  0.0000  0.0000  0.0000  0.0000  0.0000  0.0000  0.0000  0.0000
  o =  0.9372  v =  0.0000  0.0000  0.0000  0.0000  0.0000 -0.0050 -0.6845  0.0066  0.6868 -0.2445      0.0000  0.0000  0.0000  0.0000  0.0000  0.0000  0.0000  0.0000  0.0000  0.0000
  o =  0.9440  v =  0.0000  0.0000  0.0000  0.0000  0.0000  0.4514  0.0103 -0.8912  0.0322  0.0283      0.0000  0.0000  0.0000  0.0000  0.0000  0.0000  0.0000  0.0000  0.0000  0.0000
  o =  0.9487  v =  0.0000  0.0000  0.0000  0.0000  0.0000 -0.0168 -0.1753  0.0264  0.1699  0.9692      0.0000  0.0000  0.0000  0.0000  0.0000  0.0000  0.0000  0.0000  0.0000  0.0000
  o =  0.9809  v =  0.0000  0.0000  0.0000  0.0000  0.0000 -0.6768  0.4703 -0.3204  0.4670  0.0002      0.0000  0.0000  0.0000  0.0000  0.0000  0.0000  0.0000  0.0000  0.0000  0.0000
  o =  0.9873  v =  0.0000  0.0000  0.0000  0.0000  0.0000 -0.5813 -0.5286 -0.3198 -0.5295 -0.0042      0.0000  0.0000  0.0000  0.0000  0.0000  0.0000  0.0000  0.0000  0.0000  0.0000
atom =   2  type =  1  l = 2
 
 onsite density matrix
 
spin component  1
 
  0.9764  0.0019 -0.0261  0.0020  0.0000
  0.0019  0.9610  0.0028 -0.0145 -0.0027
 -0.0261  0.0028  0.9534  0.0027  0.0002
  0.0020 -0.0145  0.0027  0.9608  0.0027
  0.0000 -0.0027  0.0002  0.0027  0.9467
 
spin component  2
 
  0.0684  0.0012 -0.0344  0.0013  0.0001
  0.0012  0.0479  0.0020 -0.0209 -0.0015
 -0.0344  0.0020  0.0451  0.0019  0.0001
  0.0013 -0.0209  0.0019  0.0479  0.0014
  0.0001 -0.0015  0.0001  0.0014  0.0217
 
 occupancies and eigenvectors
 
  o =  0.0191  v =  0.0000  0.0000  0.0000  0.0000  0.0000 -0.5357  0.2749 -0.7485  0.2710  0.0610      0.0000  0.0000  0.0000  0.0000  0.0000  0.0000  0.0000  0.0000  0.0000  0.0000
  o =  0.0216  v =  0.0000  0.0000  0.0000  0.0000  0.0000  0.0325  0.0121  0.0452 -0.0477  0.9972      0.0000  0.0000  0.0000  0.0000  0.0000  0.0000  0.0000  0.0000  0.0000  0.0000
  o =  0.0284  v =  0.0000  0.0000  0.0000  0.0000  0.0000  0.2274  0.6519  0.3129  0.6522  0.0017      0.0000  0.0000  0.0000  0.0000  0.0000  0.0000  0.0000  0.0000  0.0000  0.0000
  o =  0.0689  v =  0.0000  0.0000  0.0000  0.0000  0.0000  0.0028  0.7066 -0.0016 -0.7063 -0.0424      0.0000  0.0000  0.0000  0.0000  0.0000  0.0000  0.0000  0.0000  0.0000  0.0000
  o =  0.0931  v =  0.0000  0.0000  0.0000  0.0000  0.0000 -0.8126  0.0041  0.5829 -0.0004 -0.0000      0.0000  0.0000  0.0000  0.0000  0.0000  0.0000  0.0000  0.0000  0.0000  0.0000
  o =  0.9344  v = -0.5082  0.2621 -0.7772  0.2624  0.0148  0.0000  0.0000  0.0000  0.0000  0.0000      0.0000  0.0000  0.0000  0.0000  0.0000  0.0000  0.0000  0.0000  0.0000  0.0000
  o =  0.9462  v = -0.0007  0.0554 -0.0058 -0.1299  0.9900  0.0000  0.0000  0.0000  0.0000  0.0000      0.0000  0.0000  0.0000  0.0000  0.0000  0.0000  0.0000  0.0000  0.0000  0.0000
  o =  0.9483  v =  0.1998  0.6581  0.3128  0.6531  0.0508  0.0000  0.0000  0.0000  0.0000  0.0000      0.0000  0.0000  0.0000  0.0000  0.0000  0.0000  0.0000  0.0000  0.0000  0.0000
  o =  0.9759  v =  0.0032  0.7036 -0.0030 -0.6983 -0.1311  0.0000  0.0000  0.0000  0.0000  0.0000      0.0000  0.0000  0.0000  0.0000  0.0000  0.0000  0.0000  0.0000  0.0000  0.0000
  o =  0.9935  v = -0.8377  0.0005  0.5460 -0.0059  0.0018  0.0000  0.0000  0.0000  0.0000  0.0000      0.0000  0.0000  0.0000  0.0000  0.0000  0.0000  0.0000  0.0000  0.0000  0.0000
     EDDAV:  cpu time    2.0860: real time    2.0860
 BZINTS: Fermi energy:  2.916520; 54.000000 electrons
         Band energy:-733.186412;  BLOECHL correction:  0.000000
       DOS:  cpu time    0.0055: real time    0.0055
    CHARGE:  cpu time    0.0972: real time    0.0972
    MIXING:  cpu time    0.0006: real time    0.0006
    --------------------------------------------
      LOOP:  cpu time    5.2496: real time    5.2497

 eigenvalue-minimisations  :  8232
 total energy-change (2. order) :-0.1583522E+00  (-0.2893396E+00)
 number of electron      53.9999996 magnetization       0.0000000
 augmentation part       19.8947057 magnetization       0.0010730

 Broyden mixing:
  rms(total) = 0.15798E+01    rms(broyden)= 0.15798E+01
  rms(prec ) = 0.15984E+01
  weight for this iteration     100.00

 eigenvalues of (default mixing * dielectric matrix)
  average eigenvalue GAMMA=   1.1646
  1.7937  0.5355

 Free energy of the ion-electron system (eV)
  ---------------------------------------------------
  alpha Z        PSCENC =       205.88318671
  Ewald energy   TEWEN  =     -4267.23927425
  -Hartree energ DENC   =     -2094.62861948
  -exchange      EXHF   =         0.00000000
  -V(xc)+E(xc)   XCENC  =       295.88389283
  PAW double counting   =      7138.47149005    -7275.69128849
  entropy T*S    EENTRO =         0.00000000
  eigenvalues    EBANDS =      -733.18641163
  atomic energy  EATOM  =      6689.45677594
  Solvation  Ediel_sol  =         0.00000000
  ---------------------------------------------------
  free energy    TOTEN  =       -41.05024832 eV

  energy without entropy =      -41.05024832  energy(sigma->0) =      -41.05024832


--------------------------------------------------------------------------------------------------------




--------------------------------------- Iteration      1(   4)  ---------------------------------------


    POTLOK:  cpu time    0.0051: real time    0.0051
    SETDIJ:  cpu time    3.0245: real time    3.0246
atom =   1  type =  1  l = 2
 
 onsite density matrix
 
spin component  1
 
  0.0630  0.0001  0.0376  0.0001  0.0000
  0.0001  0.0512 -0.0000  0.0290  0.0007
  0.0376 -0.0000  0.0447 -0.0000 -0.0001
  0.0001  0.0290 -0.0000  0.0512 -0.0008
  0.0000  0.0007 -0.0001 -0.0008  0.0157
 
spin component  2
 
  0.9666  0.0006  0.0137  0.0007 -0.0000
  0.0006  0.9567  0.0010  0.0181 -0.0018
  0.0137  0.0010  0.9498  0.0011  0.0002
  0.0007  0.0181  0.0011  0.9567  0.0020
 -0.0000 -0.0018  0.0002  0.0020  0.9458
 
 occupancies and eigenvectors
 
  o =  0.0151  v = -0.6028 -0.0246  0.7673  0.0279  0.2156  0.0000  0.0000  0.0000  0.0000  0.0000      0.0000  0.0000  0.0000  0.0000  0.0000  0.0000  0.0000  0.0000  0.0000  0.0000
  o =  0.0155  v = -0.1355  0.1032  0.1717 -0.1047 -0.9647  0.0000  0.0000  0.0000  0.0000  0.0000      0.0000  0.0000  0.0000  0.0000  0.0000  0.0000  0.0000  0.0000  0.0000  0.0000
  o =  0.0224  v = -0.0024  0.6990  0.0033 -0.6989  0.1516  0.0000  0.0000  0.0000  0.0000  0.0000      0.0000  0.0000  0.0000  0.0000  0.0000  0.0000  0.0000  0.0000  0.0000  0.0000
  o =  0.0802  v =  0.0057 -0.7072  0.0071 -0.7069  0.0016  0.0000  0.0000  0.0000  0.0000  0.0000      0.0000  0.0000  0.0000  0.0000  0.0000  0.0000  0.0000  0.0000  0.0000  0.0000
  o =  0.0925  v = -0.7863 -0.0062 -0.6178 -0.0063  0.0005  0.0000  0.0000  0.0000  0.0000  0.0000      0.0000  0.0000  0.0000  0.0000  0.0000  0.0000  0.0000  0.0000  0.0000  0.0000
  o =  0.9377  v =  0.0000  0.0000  0.0000  0.0000  0.0000  0.0019  0.6707 -0.0031 -0.6731  0.3115      0.0000  0.0000  0.0000  0.0000  0.0000  0.0000  0.0000  0.0000  0.0000  0.0000
  o =  0.9421  v =  0.0000  0.0000  0.0000  0.0000  0.0000 -0.4862 -0.0070  0.8726 -0.0290 -0.0359      0.0000  0.0000  0.0000  0.0000  0.0000  0.0000  0.0000  0.0000  0.0000  0.0000
  o =  0.9467  v =  0.0000  0.0000  0.0000  0.0000  0.0000  0.0211  0.2244 -0.0327 -0.2157 -0.9495      0.0000  0.0000  0.0000  0.0000  0.0000  0.0000  0.0000  0.0000  0.0000  0.0000
  o =  0.9730  v =  0.0000  0.0000  0.0000  0.0000  0.0000  0.6845 -0.4476  0.3629 -0.4466 -0.0016      0.0000  0.0000  0.0000  0.0000  0.0000  0.0000  0.0000  0.0000  0.0000  0.0000
  o =  0.9761  v =  0.0000  0.0000  0.0000  0.0000  0.0000 -0.5428 -0.5472 -0.3253 -0.5479 -0.0057      0.0000  0.0000  0.0000  0.0000  0.0000  0.0000  0.0000  0.0000  0.0000  0.0000
atom =   2  type =  1  l = 2
 
 onsite density matrix
 
spin component  1
 
  0.9664  0.0016 -0.0202  0.0016  0.0000
  0.0016  0.9573  0.0014 -0.0126 -0.0014
 -0.0202  0.0014  0.9487  0.0013  0.0002
  0.0016 -0.0126  0.0013  0.9571  0.0014
  0.0000 -0.0014  0.0002  0.0014  0.9454
 
spin component  2
 
  0.0641 -0.0006 -0.0367 -0.0006  0.0000
 -0.0006  0.0501  0.0001 -0.0295  0.0001
 -0.0367  0.0001  0.0458  0.0002 -0.0001
 -0.0006 -0.0295  0.0002  0.0502 -0.0002
  0.0000  0.0001 -0.0001 -0.0002  0.0156
 
 occupancies and eigenvectors
 
  o =  0.0156  v =  0.0000  0.0000  0.0000  0.0000  0.0000  0.0128  0.0050  0.0171  0.0096  0.9997      0.0000  0.0000  0.0000  0.0000  0.0000  0.0000  0.0000  0.0000  0.0000  0.0000
  o =  0.0171  v =  0.0000  0.0000  0.0000  0.0000  0.0000 -0.6136 -0.0716 -0.7829 -0.0703  0.0223      0.0000  0.0000  0.0000  0.0000  0.0000  0.0000  0.0000  0.0000  0.0000  0.0000
  o =  0.0207  v =  0.0000  0.0000  0.0000  0.0000  0.0000  0.0528 -0.7044  0.0864 -0.7024  0.0082      0.0000  0.0000  0.0000  0.0000  0.0000  0.0000  0.0000  0.0000  0.0000  0.0000
  o =  0.0796  v =  0.0000  0.0000  0.0000  0.0000  0.0000 -0.0000  0.7061 -0.0008 -0.7081  0.0033      0.0000  0.0000  0.0000  0.0000  0.0000  0.0000  0.0000  0.0000  0.0000  0.0000
  o =  0.0927  v =  0.0000  0.0000  0.0000  0.0000  0.0000  0.7877 -0.0086 -0.6159 -0.0079  0.0006      0.0000  0.0000  0.0000  0.0000  0.0000  0.0000  0.0000  0.0000  0.0000  0.0000
  o =  0.9347  v = -0.5303  0.1967 -0.8011  0.1953  0.0123  0.0000  0.0000  0.0000  0.0000  0.0000      0.0000  0.0000  0.0000  0.0000  0.0000  0.0000  0.0000  0.0000  0.0000  0.0000
  o =  0.9452  v = -0.0534 -0.2660 -0.1069 -0.3712  0.8816  0.0000  0.0000  0.0000  0.0000  0.0000      0.0000  0.0000  0.0000  0.0000  0.0000  0.0000  0.0000  0.0000  0.0000  0.0000
  o =  0.9454  v = -0.1193 -0.6234 -0.2217 -0.5761 -0.4648  0.0000  0.0000  0.0000  0.0000  0.0000      0.0000  0.0000  0.0000  0.0000  0.0000  0.0000  0.0000  0.0000  0.0000  0.0000
  o =  0.9700  v = -0.0033 -0.7083  0.0005  0.7012  0.0814  0.0000  0.0000  0.0000  0.0000  0.0000      0.0000  0.0000  0.0000  0.0000  0.0000  0.0000  0.0000  0.0000  0.0000  0.0000
  o =  0.9796  v = -0.8376 -0.0160  0.5456 -0.0207  0.0019  0.0000  0.0000  0.0000  0.0000  0.0000      0.0000  0.0000  0.0000  0.0000  0.0000  0.0000  0.0000  0.0000  0.0000  0.0000
     EDDAV:  cpu time    2.0288: real time    2.0288
 BZINTS: Fermi energy:  2.529496; 54.000000 electrons
         Band energy:-740.731404;  BLOECHL correction:  0.000000
       DOS:  cpu time    0.0055: real time    0.0055
    CHARGE:  cpu time    0.1019: real time    0.1019
    MIXING:  cpu time    0.0006: real time    0.0006
    --------------------------------------------
      LOOP:  cpu time    5.1664: real time    5.1665

 eigenvalue-minimisations  :  8088
 total energy-change (2. order) : 0.3938165E-01  (-0.1020067E+00)
 number of electron      53.9999996 magnetization       0.0000000
 augmentation part       19.9736789 magnetization       0.0002602

 Broyden mixing:
  rms(total) = 0.33992E+00    rms(broyden)= 0.33991E+00
  rms(prec ) = 0.40600E+00
  weight for this iteration     100.00

 eigenvalues of (default mixing * dielectric matrix)
  average eigenvalue GAMMA=   1.2266
  2.1021  0.7888  0.7888

 Free energy of the ion-electron system (eV)
  ---------------------------------------------------
  alpha Z        PSCENC =       205.88318671
  Ewald energy   TEWEN  =     -4267.23927425
  -Hartree energ DENC   =     -2093.41166637
  -exchange      EXHF   =         0.00000000
  -V(xc)+E(xc)   XCENC  =       295.94485294
  PAW double counting   =      6539.57227390    -6670.48561153
  entropy T*S    EENTRO =         0.00000000
  eigenvalues    EBANDS =      -740.73140402
  atomic energy  EATOM  =      6689.45677594
  Solvation  Ediel_sol  =         0.00000000
  ---------------------------------------------------
  free energy    TOTEN  =       -41.01086667 eV

  energy without entropy =      -41.01086667  energy(sigma->0) =      -41.01086667


--------------------------------------------------------------------------------------------------------




--------------------------------------- Iteration      1(   5)  ---------------------------------------


    POTLOK:  cpu time    0.0048: real time    0.0048
    SETDIJ:  cpu time    3.0081: real time    3.0082
atom =   1  type =  1  l = 2
 
 onsite density matrix
 
spin component  1
 
  0.0747  0.0008  0.0297  0.0008 -0.0000
  0.0008  0.0594  0.0009  0.0283 -0.0017
  0.0297  0.0009  0.0509  0.0010  0.0002
  0.0008  0.0283  0.0010  0.0594  0.0021
 -0.0000 -0.0017  0.0002  0.0021  0.0351
 
spin component  2
 
  0.9543 -0.0007  0.0260 -0.0007  0.0000
 -0.0007  0.9519 -0.0008  0.0182  0.0016
  0.0260 -0.0008  0.9461 -0.0009 -0.0002
 -0.0007  0.0182 -0.0009  0.9519 -0.0019
  0.0000  0.0016 -0.0002 -0.0019  0.9262
 
 occupancies and eigenvectors
 
  o =  0.0297  v =  0.0282  0.6310 -0.0415 -0.6328  0.4458  0.0000  0.0000  0.0000  0.0000  0.0000      0.0000  0.0000  0.0000  0.0000  0.0000  0.0000  0.0000  0.0000  0.0000  0.0000
  o =  0.0308  v = -0.5590  0.0348  0.8271 -0.0480 -0.0049  0.0000  0.0000  0.0000  0.0000  0.0000      0.0000  0.0000  0.0000  0.0000  0.0000  0.0000  0.0000  0.0000  0.0000  0.0000
  o =  0.0365  v = -0.0186 -0.3175  0.0242  0.3116  0.8951  0.0000  0.0000  0.0000  0.0000  0.0000      0.0000  0.0000  0.0000  0.0000  0.0000  0.0000  0.0000  0.0000  0.0000  0.0000
  o =  0.0873  v =  0.1846 -0.6903  0.1137 -0.6903 -0.0038  0.0000  0.0000  0.0000  0.0000  0.0000      0.0000  0.0000  0.0000  0.0000  0.0000  0.0000  0.0000  0.0000  0.0000  0.0000
  o =  0.0952  v = -0.8077 -0.1525 -0.5484 -0.1538 -0.0025  0.0000  0.0000  0.0000  0.0000  0.0000      0.0000  0.0000  0.0000  0.0000  0.0000  0.0000  0.0000  0.0000  0.0000  0.0000
  o =  0.9239  v =  0.0000  0.0000  0.0000  0.0000  0.0000  0.6461  0.0152 -0.7561 -0.0241 -0.1004      0.0000  0.0000  0.0000  0.0000  0.0000  0.0000  0.0000  0.0000  0.0000  0.0000
  o =  0.9254  v =  0.0000  0.0000  0.0000  0.0000  0.0000 -0.0697  0.2012  0.0775 -0.2070 -0.9518      0.0000  0.0000  0.0000  0.0000  0.0000  0.0000  0.0000  0.0000  0.0000  0.0000
  o =  0.9345  v =  0.0000  0.0000  0.0000  0.0000  0.0000  0.0014  0.6779 -0.0021 -0.6755  0.2899      0.0000  0.0000  0.0000  0.0000  0.0000  0.0000  0.0000  0.0000  0.0000  0.0000
  o =  0.9697  v =  0.0000  0.0000  0.0000  0.0000  0.0000  0.1684  0.6903  0.1365  0.6903 -0.0054      0.0000  0.0000  0.0000  0.0000  0.0000  0.0000  0.0000  0.0000  0.0000  0.0000
  o =  0.9769  v =  0.0000  0.0000  0.0000  0.0000  0.0000 -0.7412  0.1524 -0.6353  0.1540  0.0013      0.0000  0.0000  0.0000  0.0000  0.0000  0.0000  0.0000  0.0000  0.0000  0.0000
atom =   2  type =  1  l = 2
 
 onsite density matrix
 
spin component  1
 
  0.9559 -0.0018 -0.0202 -0.0018  0.0000
 -0.0018  0.9500 -0.0012 -0.0229  0.0017
 -0.0202 -0.0012  0.9471 -0.0011 -0.0002
 -0.0018 -0.0229 -0.0011  0.9504 -0.0018
  0.0000  0.0017 -0.0002 -0.0018  0.9271
 
spin component  2
 
  0.0732  0.0019 -0.0360  0.0019 -0.0000
  0.0019  0.0610  0.0014 -0.0230 -0.0018
 -0.0360  0.0014  0.0498  0.0013  0.0002
  0.0019 -0.0230  0.0013  0.0606  0.0020
 -0.0000 -0.0018  0.0002  0.0020  0.0341
 
 occupancies and eigenvectors
 
  o =  0.0230  v =  0.0000  0.0000  0.0000  0.0000  0.0000 -0.5775  0.1446 -0.7903  0.1441  0.0120      0.0000  0.0000  0.0000  0.0000  0.0000  0.0000  0.0000  0.0000  0.0000  0.0000
  o =  0.0339  v =  0.0000  0.0000  0.0000  0.0000  0.0000  0.0054  0.0152  0.0027 -0.0617  0.9980      0.0000  0.0000  0.0000  0.0000  0.0000  0.0000  0.0000  0.0000  0.0000  0.0000
  o =  0.0385  v =  0.0000  0.0000  0.0000  0.0000  0.0000  0.1073  0.6900  0.1748  0.6935  0.0313      0.0000  0.0000  0.0000  0.0000  0.0000  0.0000  0.0000  0.0000  0.0000  0.0000
  o =  0.0840  v =  0.0000  0.0000  0.0000  0.0000  0.0000  0.0014  0.7090 -0.0002 -0.7031 -0.0542      0.0000  0.0000  0.0000  0.0000  0.0000  0.0000  0.0000  0.0000  0.0000  0.0000
  o =  0.0994  v =  0.0000  0.0000  0.0000  0.0000  0.0000 -0.8093 -0.0105  0.5872 -0.0125  0.0022      0.0000  0.0000  0.0000  0.0000  0.0000  0.0000  0.0000  0.0000  0.0000  0.0000
  o =  0.9257  v = -0.3183 -0.6119 -0.3686 -0.6143 -0.1055  0.0000  0.0000  0.0000  0.0000  0.0000      0.0000  0.0000  0.0000  0.0000  0.0000  0.0000  0.0000  0.0000  0.0000  0.0000
  o =  0.9270  v = -0.0286 -0.1084 -0.0269 -0.0315  0.9928  0.0000  0.0000  0.0000  0.0000  0.0000      0.0000  0.0000  0.0000  0.0000  0.0000  0.0000  0.0000  0.0000  0.0000  0.0000
  o =  0.9324  v =  0.5382 -0.3455  0.6871 -0.3444 -0.0145  0.0000  0.0000  0.0000  0.0000  0.0000      0.0000  0.0000  0.0000  0.0000  0.0000  0.0000  0.0000  0.0000  0.0000  0.0000
  o =  0.9722  v = -0.7793  0.0422  0.6250 -0.0131 -0.0013  0.0000  0.0000  0.0000  0.0000  0.0000      0.0000  0.0000  0.0000  0.0000  0.0000  0.0000  0.0000  0.0000  0.0000  0.0000
  o =  0.9732  v =  0.0300  0.7019 -0.0248 -0.7091  0.0543  0.0000  0.0000  0.0000  0.0000  0.0000      0.0000  0.0000  0.0000  0.0000  0.0000  0.0000  0.0000  0.0000  0.0000  0.0000
     EDDAV:  cpu time    2.2192: real time    2.2193
 BZINTS: Fermi energy:  2.546369; 54.000000 electrons
         Band energy:-741.496363;  BLOECHL correction:  0.000000
       DOS:  cpu time    0.0055: real time    0.0055
    CHARGE:  cpu time    0.1018: real time    0.1018
    MIXING:  cpu time    0.0006: real time    0.0006
    --------------------------------------------
      LOOP:  cpu time    5.3402: real time    5.3402

 eigenvalue-minimisations  :  8856
 total energy-change (2. order) : 0.3604030E-01  (-0.1189679E-01)
 number of electron      53.9999996 magnetization       0.0000000
 augmentation part       19.9704511 magnetization      -0.0004175

 Broyden mixing:
  rms(total) = 0.12512E+00    rms(broyden)= 0.12512E+00
  rms(prec ) = 0.14439E+00
  weight for this iteration     100.00

 eigenvalues of (default mixing * dielectric matrix)
  average eigenvalue GAMMA=   1.1374
  2.3722  0.7809  0.7809  0.6154

 Free energy of the ion-electron system (eV)
  ---------------------------------------------------
  alpha Z        PSCENC =       205.88318671
  Ewald energy   TEWEN  =     -4267.23927425
  -Hartree energ DENC   =     -2093.98480005
  -exchange      EXHF   =         0.00000000
  -V(xc)+E(xc)   XCENC  =       295.90197787
  PAW double counting   =      6366.18721497    -6495.68354434
  entropy T*S    EENTRO =         0.00000000
  eigenvalues    EBANDS =      -741.49636322
  atomic energy  EATOM  =      6689.45677594
  Solvation  Ediel_sol  =         0.00000000
  ---------------------------------------------------
  free energy    TOTEN  =       -40.97482637 eV

  energy without entropy =      -40.97482637  energy(sigma->0) =      -40.97482637


--------------------------------------------------------------------------------------------------------




--------------------------------------- Iteration      1(   6)  ---------------------------------------


    POTLOK:  cpu time    0.0048: real time    0.0048
    SETDIJ:  cpu time    3.0066: real time    3.0067
atom =   1  type =  1  l = 2
 
 onsite density matrix
 
spin component  1
 
  0.0629 -0.0001  0.0354 -0.0001  0.0000
 -0.0001  0.0522 -0.0001  0.0273  0.0003
  0.0354 -0.0001  0.0454 -0.0001 -0.0000
 -0.0001  0.0273 -0.0001  0.0522 -0.0003
  0.0000  0.0003 -0.0000 -0.0003  0.0193
 
spin component  2
 
  0.9666  0.0001  0.0207  0.0001 -0.0000
  0.0001  0.9598  0.0001  0.0192 -0.0003
  0.0207  0.0001  0.9522  0.0002  0.0000
  0.0001  0.0192  0.0002  0.9598  0.0004
 -0.0000 -0.0003  0.0000  0.0004  0.9424
 
 occupancies and eigenvectors
 
  o =  0.0177  v =  0.6164  0.0010 -0.7872 -0.0021 -0.0189  0.0000  0.0000  0.0000  0.0000  0.0000      0.0000  0.0000  0.0000  0.0000  0.0000  0.0000  0.0000  0.0000  0.0000  0.0000
  o =  0.0193  v = -0.0119  0.0537  0.0149 -0.0543 -0.9969  0.0000  0.0000  0.0000  0.0000  0.0000      0.0000  0.0000  0.0000  0.0000  0.0000  0.0000  0.0000  0.0000  0.0000  0.0000
  o =  0.0249  v = -0.0004  0.7051  0.0006 -0.7050  0.0764  0.0000  0.0000  0.0000  0.0000  0.0000      0.0000  0.0000  0.0000  0.0000  0.0000  0.0000  0.0000  0.0000  0.0000  0.0000
  o =  0.0795  v =  0.0122  0.7070  0.0085  0.7071 -0.0004  0.0000  0.0000  0.0000  0.0000  0.0000      0.0000  0.0000  0.0000  0.0000  0.0000  0.0000  0.0000  0.0000  0.0000  0.0000
  o =  0.0906  v = -0.7873  0.0105 -0.6164  0.0105  0.0002  0.0000  0.0000  0.0000  0.0000  0.0000      0.0000  0.0000  0.0000  0.0000  0.0000  0.0000  0.0000  0.0000  0.0000  0.0000
  o =  0.9375  v =  0.0000  0.0000  0.0000  0.0000  0.0000 -0.5791  0.0004  0.8153 -0.0033 -0.0061      0.0000  0.0000  0.0000  0.0000  0.0000  0.0000  0.0000  0.0000  0.0000  0.0000
  o =  0.9405  v =  0.0000  0.0000  0.0000  0.0000  0.0000  0.0006  0.6864 -0.0009 -0.6867  0.2393      0.0000  0.0000  0.0000  0.0000  0.0000  0.0000  0.0000  0.0000  0.0000  0.0000
  o =  0.9425  v =  0.0000  0.0000  0.0000  0.0000  0.0000  0.0040  0.1698 -0.0052 -0.1686 -0.9709      0.0000  0.0000  0.0000  0.0000  0.0000  0.0000  0.0000  0.0000  0.0000  0.0000
  o =  0.9789  v =  0.0000  0.0000  0.0000  0.0000  0.0000  0.0841 -0.7035  0.0572 -0.7034 -0.0008      0.0000  0.0000  0.0000  0.0000  0.0000  0.0000  0.0000  0.0000  0.0000  0.0000
  o =  0.9813  v =  0.0000  0.0000  0.0000  0.0000  0.0000 -0.8109 -0.0719 -0.5762 -0.0719 -0.0004      0.0000  0.0000  0.0000  0.0000  0.0000  0.0000  0.0000  0.0000  0.0000  0.0000
atom =   2  type =  1  l = 2
 
 onsite density matrix
 
spin component  1
 
  0.9663  0.0003 -0.0216  0.0003  0.0000
  0.0003  0.9600  0.0002 -0.0185 -0.0002
 -0.0216  0.0002  0.9518  0.0002  0.0000
  0.0003 -0.0185  0.0002  0.9600  0.0002
  0.0000 -0.0002  0.0000  0.0002  0.9423
 
spin component  2
 
  0.0632 -0.0003 -0.0346 -0.0003 -0.0000
 -0.0003  0.0518 -0.0001 -0.0278  0.0002
 -0.0346 -0.0001  0.0457 -0.0001 -0.0000
 -0.0003 -0.0278 -0.0001  0.0518 -0.0002
 -0.0000  0.0002 -0.0000 -0.0002  0.0194
 
 occupancies and eigenvectors
 
  o =  0.0187  v =  0.0000  0.0000  0.0000  0.0000  0.0000 -0.6124 -0.0475 -0.7870 -0.0475 -0.0328      0.0000  0.0000  0.0000  0.0000  0.0000  0.0000  0.0000  0.0000  0.0000  0.0000
  o =  0.0194  v =  0.0000  0.0000  0.0000  0.0000  0.0000 -0.0203 -0.0033 -0.0258  0.0024  0.9995      0.0000  0.0000  0.0000  0.0000  0.0000  0.0000  0.0000  0.0000  0.0000  0.0000
  o =  0.0240  v =  0.0000  0.0000  0.0000  0.0000  0.0000  0.0388 -0.7058  0.0549 -0.7052  0.0016      0.0000  0.0000  0.0000  0.0000  0.0000  0.0000  0.0000  0.0000  0.0000  0.0000
  o =  0.0796  v =  0.0000  0.0000  0.0000  0.0000  0.0000  0.0002 -0.7068  0.0000  0.7074 -0.0040      0.0000  0.0000  0.0000  0.0000  0.0000  0.0000  0.0000  0.0000  0.0000  0.0000
  o =  0.0901  v =  0.0000  0.0000  0.0000  0.0000  0.0000 -0.7893  0.0021  0.6140  0.0023 -0.0002      0.0000  0.0000  0.0000  0.0000  0.0000  0.0000  0.0000  0.0000  0.0000  0.0000
  o =  0.9363  v =  0.5821 -0.0616  0.8084 -0.0613 -0.0039  0.0000  0.0000  0.0000  0.0000  0.0000      0.0000  0.0000  0.0000  0.0000  0.0000  0.0000  0.0000  0.0000  0.0000  0.0000
  o =  0.9416  v =  0.0473  0.7037  0.0728  0.7049 -0.0211  0.0000  0.0000  0.0000  0.0000  0.0000      0.0000  0.0000  0.0000  0.0000  0.0000  0.0000  0.0000  0.0000  0.0000  0.0000
  o =  0.9423  v =  0.0036  0.0211  0.0045  0.0082  0.9997  0.0000  0.0000  0.0000  0.0000  0.0000      0.0000  0.0000  0.0000  0.0000  0.0000  0.0000  0.0000  0.0000  0.0000  0.0000
  o =  0.9785  v =  0.0010  0.7075 -0.0004 -0.7066 -0.0092  0.0000  0.0000  0.0000  0.0000  0.0000      0.0000  0.0000  0.0000  0.0000  0.0000  0.0000  0.0000  0.0000  0.0000  0.0000
  o =  0.9819  v = -0.8117 -0.0021  0.5841 -0.0037  0.0004  0.0000  0.0000  0.0000  0.0000  0.0000      0.0000  0.0000  0.0000  0.0000  0.0000  0.0000  0.0000  0.0000  0.0000  0.0000
     EDDAV:  cpu time    2.0362: real time    2.0363
 BZINTS: Fermi energy:  2.619365; 54.000000 electrons
         Band energy:-740.598546;  BLOECHL correction:  0.000000
       DOS:  cpu time    0.0045: real time    0.0045
    CHARGE:  cpu time    0.1021: real time    0.1021
    MIXING:  cpu time    0.0007: real time    0.0007
    --------------------------------------------
      LOOP:  cpu time    5.1550: real time    5.1551

 eigenvalue-minimisations  :  8088
 total energy-change (2. order) : 0.3177012E-03  (-0.2128991E-02)
 number of electron      53.9999996 magnetization       0.0000000
 augmentation part       19.9638421 magnetization      -0.0001641

 Broyden mixing:
  rms(total) = 0.45266E-01    rms(broyden)= 0.45263E-01
  rms(prec ) = 0.51260E-01
  weight for this iteration     100.00

 eigenvalues of (default mixing * dielectric matrix)
  average eigenvalue GAMMA=   1.1175
  2.4015  0.8693  0.8693  0.8158  0.6315

 Free energy of the ion-electron system (eV)
  ---------------------------------------------------
  alpha Z        PSCENC =       205.88318671
  Ewald energy   TEWEN  =     -4267.23927425
  -Hartree energ DENC   =     -2095.08450270
  -exchange      EXHF   =         0.00000000
  -V(xc)+E(xc)   XCENC  =       295.95178821
  PAW double counting   =      6354.98910063    -6484.33303768
  entropy T*S    EENTRO =         0.00000000
  eigenvalues    EBANDS =      -740.59854553
  atomic energy  EATOM  =      6689.45677594
  Solvation  Ediel_sol  =         0.00000000
  ---------------------------------------------------
  free energy    TOTEN  =       -40.97450867 eV

  energy without entropy =      -40.97450867  energy(sigma->0) =      -40.97450867


--------------------------------------------------------------------------------------------------------




--------------------------------------- Iteration      1(   7)  ---------------------------------------


    POTLOK:  cpu time    0.0051: real time    0.0051
    SETDIJ:  cpu time    3.0094: real time    3.0094
atom =   1  type =  1  l = 2
 
 onsite density matrix
 
spin component  1
 
  0.0648  0.0000  0.0344  0.0000 -0.0000
  0.0000  0.0533  0.0000  0.0273 -0.0000
  0.0344  0.0000  0.0466  0.0000  0.0000
  0.0000  0.0273  0.0000  0.0533  0.0001
 -0.0000 -0.0000  0.0000  0.0001  0.0218
 
spin component  2
 
  0.9649 -0.0000  0.0217 -0.0000 -0.0000
 -0.0000  0.9588 -0.0000  0.0192  0.0000
  0.0217 -0.0000  0.9512 -0.0000 -0.0000
 -0.0000  0.0192 -0.0000  0.9588 -0.0000
 -0.0000  0.0000 -0.0000 -0.0000  0.9401
 
 occupancies and eigenvectors
 
  o =  0.0201  v = -0.6099  0.0001  0.7924 -0.0003 -0.0024  0.0000  0.0000  0.0000  0.0000  0.0000      0.0000  0.0000  0.0000  0.0000  0.0000  0.0000  0.0000  0.0000  0.0000  0.0000
  o =  0.0218  v =  0.0015 -0.0118 -0.0019  0.0119 -0.9999  0.0000  0.0000  0.0000  0.0000  0.0000      0.0000  0.0000  0.0000  0.0000  0.0000  0.0000  0.0000  0.0000  0.0000  0.0000
  o =  0.0260  v =  0.0002  0.7070 -0.0002 -0.7070 -0.0168  0.0000  0.0000  0.0000  0.0000  0.0000      0.0000  0.0000  0.0000  0.0000  0.0000  0.0000  0.0000  0.0000  0.0000  0.0000
  o =  0.0806  v =  0.0057 -0.7071  0.0042 -0.7071 -0.0001  0.0000  0.0000  0.0000  0.0000  0.0000      0.0000  0.0000  0.0000  0.0000  0.0000  0.0000  0.0000  0.0000  0.0000  0.0000
  o =  0.0913  v = -0.7924 -0.0050 -0.6099 -0.0050 -0.0000  0.0000  0.0000  0.0000  0.0000  0.0000      0.0000  0.0000  0.0000  0.0000  0.0000  0.0000  0.0000  0.0000  0.0000  0.0000
  o =  0.9353  v =  0.0000  0.0000  0.0000  0.0000  0.0000  0.5907 -0.0000 -0.8069  0.0002 -0.0007      0.0000  0.0000  0.0000  0.0000  0.0000  0.0000  0.0000  0.0000  0.0000  0.0000
  o =  0.9396  v =  0.0000  0.0000  0.0000  0.0000  0.0000 -0.0000 -0.7032  0.0001  0.7032  0.1049      0.0000  0.0000  0.0000  0.0000  0.0000  0.0000  0.0000  0.0000  0.0000  0.0000
  o =  0.9401  v =  0.0000  0.0000  0.0000  0.0000  0.0000  0.0005  0.0742 -0.0006 -0.0741  0.9945      0.0000  0.0000  0.0000  0.0000  0.0000  0.0000  0.0000  0.0000  0.0000  0.0000
  o =  0.9780  v =  0.0000  0.0000  0.0000  0.0000  0.0000 -0.0045 -0.7071 -0.0034 -0.7071  0.0001      0.0000  0.0000  0.0000  0.0000  0.0000  0.0000  0.0000  0.0000  0.0000  0.0000
  o =  0.9808  v =  0.0000  0.0000  0.0000  0.0000  0.0000 -0.8069  0.0040 -0.5907  0.0040  0.0001      0.0000  0.0000  0.0000  0.0000  0.0000  0.0000  0.0000  0.0000  0.0000  0.0000
atom =   2  type =  1  l = 2
 
 onsite density matrix
 
spin component  1
 
  0.9650 -0.0000 -0.0216 -0.0000  0.0000
 -0.0000  0.9587 -0.0000 -0.0193  0.0000
 -0.0216 -0.0000  0.9512 -0.0000 -0.0000
 -0.0000 -0.0193 -0.0000  0.9587 -0.0000
  0.0000  0.0000 -0.0000 -0.0000  0.9400
 
spin component  2
 
  0.0648  0.0000 -0.0346  0.0001 -0.0000
  0.0000  0.0533  0.0001 -0.0271 -0.0001
 -0.0346  0.0001  0.0465  0.0001  0.0000
  0.0001 -0.0271  0.0001  0.0533  0.0001
 -0.0000 -0.0001  0.0000  0.0001  0.0217
 
 occupancies and eigenvectors
 
  o =  0.0198  v =  0.0000  0.0000  0.0000  0.0000  0.0000  0.6103 -0.0124  0.7920 -0.0124 -0.0022      0.0000  0.0000  0.0000  0.0000  0.0000  0.0000  0.0000  0.0000  0.0000  0.0000
  o =  0.0217  v =  0.0000  0.0000  0.0000  0.0000  0.0000  0.0014  0.0006  0.0017 -0.0018  1.0000      0.0000  0.0000  0.0000  0.0000  0.0000  0.0000  0.0000  0.0000  0.0000  0.0000
  o =  0.0262  v =  0.0000  0.0000  0.0000  0.0000  0.0000  0.0107  0.7069  0.0139  0.7071  0.0008      0.0000  0.0000  0.0000  0.0000  0.0000  0.0000  0.0000  0.0000  0.0000  0.0000
  o =  0.0804  v =  0.0000  0.0000  0.0000  0.0000  0.0000  0.0001  0.7072 -0.0001 -0.7071 -0.0017      0.0000  0.0000  0.0000  0.0000  0.0000  0.0000  0.0000  0.0000  0.0000  0.0000
  o =  0.0915  v =  0.0000  0.0000  0.0000  0.0000  0.0000 -0.7921  0.0001  0.6104 -0.0001  0.0001      0.0000  0.0000  0.0000  0.0000  0.0000  0.0000  0.0000  0.0000  0.0000  0.0000
  o =  0.9354  v =  0.5897  0.0067  0.8076  0.0067  0.0005  0.0000  0.0000  0.0000  0.0000  0.0000      0.0000  0.0000  0.0000  0.0000  0.0000  0.0000  0.0000  0.0000  0.0000  0.0000
[...]
     18      -2.6812      1.00000
     19      -2.1013      1.00000
     20      -1.8772      1.00000
     21      -1.6771      1.00000
     22      -1.5541      1.00000
     23       0.9381      1.00000
     24       0.9724      1.00000
     25       1.2095      1.00000
     26       1.9023      1.00000
     27       2.4728      1.00000
     28       6.3123      0.00000
     29       6.3366      0.00000
     30       6.5396      0.00000
     31       7.2605      0.00000
     32       7.7844      0.00000
     33       9.5430      0.00000
     34      10.9291      0.00000
     35      11.5669      0.00000
     36      12.6343      0.00000

 k-point    48 :      -0.1250   -0.1250    0.4167
  band No.  band energies     occupation 
      1     -45.8529      1.00000
      2     -45.8200      1.00000
      3     -45.7921      1.00000
      4     -41.3217      1.00000
      5     -41.3034      1.00000
      6     -41.2662      1.00000
      7     -20.5872      1.00000
      8     -20.4275      1.00000
      9     -20.3778      1.00000
     10     -20.2791      1.00000
     11      -4.1907      1.00000
     12      -3.9481      1.00000
     13      -3.6687      1.00000
     14      -3.5211      1.00000
     15      -3.3717      1.00000
     16      -3.1358      1.00000
     17      -2.6955      1.00000
     18      -2.5063      1.00000
     19      -2.4009      1.00000
     20      -1.8986      1.00000
     21      -1.8036      1.00000
     22      -1.7397      1.00000
     23       0.9388      1.00000
     24       1.0267      1.00000
     25       1.2980      1.00000
     26       1.9566      1.00000
     27       2.3148      1.00000
     28       6.3311      0.00000
     29       6.3463      0.00000
     30       6.4736      0.00000
     31       7.3008      0.00000
     32       7.5909      0.00000
     33       8.9318      0.00000
     34      11.1274      0.00000
     35      12.6034      0.00000
     36      12.8520      0.00000


--------------------------------------------------------------------------------------------------------


 soft charge-density along one line, spin component           1
         0         1         2         3         4         5         6         7         8         9
 total charge-density along one line
 
 soft charge-density along one line, spin component           2
         0         1         2         3         4         5         6         7         8         9
 total charge-density along one line
 
 pseudopotential strength for first ion, spin component:           1
-41.853   0.000  -0.033   7.883  -0.000   0.013   0.000   0.000
  0.000 -41.828   0.000  -0.000   7.872  -0.000  -0.000  -0.000
 -0.033   0.000 -41.853   0.013  -0.000   7.883  -0.000  -0.000
  7.883  -0.000   0.013   5.350   0.000  -0.005  -0.000  -0.000
 -0.000   7.872  -0.000   0.000   5.355   0.000  -0.000  -0.000
  0.013  -0.000   7.883  -0.005   0.000   5.350  -0.000  -0.000
  0.000  -0.000  -0.000  -0.000  -0.000  -0.000  -2.148   0.000
  0.000  -0.000  -0.000  -0.000  -0.000  -0.000   0.000  -2.118
  0.000   0.000  -0.000   0.000   0.000  -0.000  -0.031  -0.000
 -0.000  -0.000   0.000  -0.000  -0.000  -0.000   0.000  -0.054
  0.000  -0.000  -0.000   0.000   0.000   0.000   0.000  -0.000
  0.000  -0.000  -0.000  -0.000  -0.000  -0.000  -2.615   0.000
  0.000  -0.000  -0.000  -0.000  -0.000  -0.000   0.000  -2.584
  0.000   0.000  -0.000   0.000   0.000  -0.000  -0.033  -0.000
 -0.000  -0.000  -0.000  -0.000  -0.000  -0.000   0.000  -0.055
  0.000  -0.000  -0.000   0.000   0.000   0.000   0.000  -0.000
 -0.000  -0.000   0.000  -0.000   0.000   0.000   0.007  -0.000
 -0.000  -0.000   0.000  -0.000   0.000   0.000   0.013  -0.000
 pseudopotential strength for first ion, spin component:           2
-44.886   0.000  -0.026   9.351  -0.000   0.009   0.000   0.000
  0.000 -44.867   0.000  -0.000   9.344  -0.000  -0.000  -0.000
 -0.026   0.000 -44.886   0.009  -0.000   9.351  -0.000  -0.000
  9.351  -0.000   0.009   4.862   0.000  -0.003   0.000  -0.000
 -0.000   9.344  -0.000   0.000   4.864   0.000  -0.000  -0.000
  0.009  -0.000   9.351  -0.003   0.000   4.862  -0.000  -0.000
  0.000  -0.000  -0.000   0.000  -0.000  -0.000  -6.476   0.000
  0.000  -0.000  -0.000  -0.000  -0.000  -0.000   0.000  -6.457
  0.000   0.000  -0.000   0.000   0.000  -0.000  -0.011   0.000
 -0.000  -0.000  -0.000  -0.000  -0.000  -0.000   0.000  -0.040
  0.000  -0.000  -0.000   0.000   0.000  -0.000   0.000  -0.000
  0.000  -0.000  -0.000   0.000  -0.000  -0.000  -6.945   0.000
  0.000  -0.000  -0.000  -0.000  -0.000  -0.000   0.000  -6.927
  0.000   0.000  -0.000   0.000   0.000  -0.000  -0.012   0.000
 -0.000  -0.000  -0.000  -0.000  -0.000  -0.000   0.000  -0.041
  0.000  -0.000  -0.000   0.000   0.000  -0.000   0.000  -0.000
 -0.000  -0.000   0.000  -0.000   0.000   0.000   0.004  -0.000
 -0.000  -0.000   0.000  -0.000   0.000   0.000   0.008  -0.000
 total augmentation occupancy for first ion, spin component:           1
  1.998  -0.000  -0.000  -0.014  -0.000   0.000  -0.000   0.000   0.000  -0.000   0.000   0.000   0.000  -0.000   0.000  -0.000
 -0.000   1.998  -0.000  -0.000  -0.013  -0.000  -0.000  -0.000   0.000   0.000  -0.000   0.000   0.000  -0.000   0.000   0.000
 -0.000  -0.000   1.998   0.000  -0.000  -0.014  -0.000   0.000  -0.000   0.000   0.000   0.000  -0.000   0.000  -0.000  -0.000
 -0.014  -0.000   0.000   0.098  -0.000  -0.011  -0.000   0.000  -0.000   0.000  -0.000   0.000  -0.000   0.000  -0.000   0.000
 -0.000  -0.013  -0.000  -0.000   0.108  -0.000   0.000   0.000  -0.000   0.000  -0.000  -0.000  -0.000   0.000  -0.000   0.000
  0.000  -0.000  -0.014  -0.011  -0.000   0.098   0.000  -0.000   0.000   0.000   0.000  -0.000   0.000  -0.000  -0.000  -0.000
 -0.000  -0.000  -0.000  -0.000   0.000   0.000   8.312   0.000   3.364   0.000  -0.000  -6.421  -0.000  -3.199  -0.000   0.000
  0.000  -0.000   0.000   0.000   0.000  -0.000   0.000   6.873   0.000   2.860   0.000  -0.000  -5.042  -0.000  -2.701  -0.000
  0.000   0.000  -0.000  -0.000  -0.000   0.000   3.364   0.000   6.197   0.000   0.000  -3.200  -0.000  -4.433  -0.000  -0.000
 -0.000   0.000   0.000   0.000   0.000   0.000   0.000   2.860   0.000   6.873  -0.000  -0.000  -2.701  -0.000  -5.042   0.000
  0.000  -0.000   0.000  -0.000  -0.000   0.000  -0.000   0.000   0.000  -0.000   3.910   0.000  -0.000  -0.000   0.000  -2.211
  0.000   0.000   0.000   0.000  -0.000  -0.000  -6.421  -0.000  -3.200  -0.000   0.000   5.703   0.000   3.083   0.000  -0.000
  0.000   0.000  -0.000  -0.000  -0.000   0.000  -0.000  -5.042  -0.000  -2.701  -0.000   0.000   4.370  -0.000   2.584   0.000
 -0.000  -0.000   0.000   0.000   0.000  -0.000  -3.199  -0.000  -4.433  -0.000  -0.000   3.083  -0.000   3.814   0.000  -0.000
  0.000   0.000  -0.000  -0.000  -0.000  -0.000  -0.000  -2.701  -0.000  -5.042   0.000   0.000   2.584   0.000   4.370  -0.000
 -0.000   0.000  -0.000   0.000   0.000  -0.000   0.000  -0.000  -0.000   0.000  -2.211  -0.000   0.000  -0.000  -0.000   1.629
 -0.000  -0.000   0.000  -0.000   0.000   0.000   0.288   0.000  -0.209   0.000  -0.000  -0.323  -0.000   0.219  -0.000   0.000
  0.000   0.000  -0.000   0.000  -0.000  -0.000  -0.006  -0.000   0.025  -0.000   0.000   0.036   0.000  -0.036   0.000  -0.000
 total augmentation occupancy for first ion, spin component:           2
  0.004   0.000  -0.000   0.016   0.000  -0.000  -0.000  -0.000   0.000  -0.000  -0.000   0.000   0.000  -0.000   0.000  -0.000
  0.000   0.004   0.000   0.000   0.017   0.000   0.000   0.000  -0.000   0.000  -0.000  -0.000  -0.000   0.000  -0.000   0.000
 -0.000   0.000   0.004  -0.000   0.000   0.016  -0.000  -0.000   0.000  -0.000   0.000   0.000   0.000  -0.000   0.000  -0.000
  0.016   0.000  -0.000  -0.009   0.000  -0.001   0.000  -0.000   0.000  -0.000   0.000  -0.000   0.000  -0.000   0.000  -0.000
  0.000   0.017   0.000   0.000  -0.008   0.000  -0.000  -0.000   0.000  -0.000  -0.000   0.000   0.000  -0.000   0.000   0.000
 -0.000   0.000   0.016  -0.001   0.000  -0.009  -0.000  -0.000  -0.000   0.000  -0.000   0.000   0.000   0.000  -0.000   0.000
 -0.000   0.000  -0.000   0.000  -0.000  -0.000  -5.454  -0.000  -1.766  -0.000  -0.000   3.107   0.000   1.357   0.000   0.000
 -0.000   0.000  -0.000  -0.000  -0.000  -0.000  -0.000  -4.705   0.000  -1.544  -0.000   0.000   2.507  -0.000   1.186   0.000
  0.000  -0.000   0.000   0.000   0.000  -0.000  -1.766   0.000  -4.244  -0.000  -0.000   1.358  -0.000   2.164   0.000   0.000
 -0.000   0.000  -0.000  -0.000  -0.000   0.000  -0.000  -1.544  -0.000  -4.705   0.000   0.000   1.186  -0.000   2.507  -0.000
 -0.000  -0.000   0.000   0.000  -0.000  -0.000  -0.000  -0.000  -0.000   0.000  -3.188   0.000   0.000   0.000  -0.000   1.343
  0.000  -0.000   0.000  -0.000   0.000   0.000   3.107   0.000   1.358   0.000   0.000  -1.845  -0.000  -0.951  -0.000  -0.000
  0.000  -0.000   0.000   0.000   0.000   0.000   0.000   2.507  -0.000   1.186   0.000  -0.000  -1.395   0.000  -0.833  -0.000
 -0.000   0.000  -0.000  -0.000  -0.000   0.000   1.357  -0.000   2.164  -0.000   0.000  -0.951   0.000  -1.164   0.000  -0.000
  0.000  -0.000   0.000   0.000   0.000  -0.000   0.000   1.186   0.000   2.507  -0.000  -0.000  -0.833   0.000  -1.395   0.000
 -0.000   0.000  -0.000  -0.000   0.000   0.000   0.000   0.000   0.000  -0.000   1.343  -0.000  -0.000  -0.000   0.000  -0.584
 -0.000   0.000   0.000  -0.000  -0.000  -0.000   0.011  -0.000   0.014  -0.000   0.000  -0.024   0.000   0.006   0.000  -0.000
  0.000  -0.000  -0.000   0.000   0.000  -0.000  -0.054   0.000   0.012   0.000  -0.000   0.033  -0.000  -0.005  -0.000   0.000


------------------------ aborting loop because EDIFF is reached ----------------------------------------


 


 total charge     
 
# of ion       s       p       d       tot
------------------------------------------
    1        0.182   6.172   4.992  11.346
    2        0.182   6.172   4.992  11.346
    3        1.722   4.357   0.000   6.079
    4        1.722   4.357   0.000   6.079
    5        1.722   4.357   0.000   6.079
    6        1.722   4.357   0.000   6.079
--------------------------------------------------
tot          7.253  29.771   9.983  47.007
 


 magnetization (x)
 
# of ion       s       p       d       tot
------------------------------------------
    1       -0.014  -0.013  -4.526  -4.553
    2        0.014   0.013   4.526   4.553
    3        0.002   0.024   0.000   0.026
    4        0.002   0.024   0.000   0.026
    5       -0.002  -0.024   0.000  -0.026
    6       -0.002  -0.024   0.000  -0.026
--------------------------------------------------
tot          0.000  -0.000   0.000  -0.000
 
    CHARGE:  cpu time    0.0971: real time    0.0971
    FORLOC:  cpu time    0.0008: real time    0.0008
    FORNL :  cpu time    0.5232: real time    0.5232
    STRESS:  cpu time    1.4578: real time    1.4578
    FORCOR:  cpu time    0.0042: real time    0.0042
    FORHAR:  cpu time    0.0021: real time    0.0021
    MIXING:  cpu time    0.0009: real time    0.0009
    OFIELD:  cpu time    0.0000: real time    0.0000

  FORCE on cell =-STRESS in cart. coord.  units (eV):
  Direction    XX          YY          ZZ          XY          YZ          ZX
  --------------------------------------------------------------------------------------
  Alpha Z   205.88319   205.88319   205.88319
  Ewald   -1607.70851 -1607.70851 -1051.82577     0.00000     0.00000    -0.00000
  Hartree   574.49411   574.49411   947.62914    -0.00000    -0.00001    -0.00001
  E(xc)    -309.37092  -309.37092  -309.41412     0.00000     0.00000     0.00000
  Local     185.96737   185.96737  -736.01570     0.00001     0.00003     0.00003
  n-local  -238.10508  -238.10508  -237.22403    -0.00001    -0.00000    -0.00000
  augment   267.02288   267.02288   266.46299     0.00004     0.00003     0.00003
  Kinetic   921.83934   921.83934   914.48388     0.00002     0.00001     0.00001
  Fock        0.00000     0.00000     0.00000     0.00000     0.00000     0.00000
  -------------------------------------------------------------------------------------
  Total       0.02238     0.02239    -0.02043     0.00006     0.00005     0.00005
  in kB       0.48460     0.48473    -0.44226     0.00138     0.00103     0.00105
  external pressure =        0.18 kB  Pullay stress =        0.00 kB


 VOLUME and BASIS-vectors are now :
 -----------------------------------------------------------------------------
  energy-cutoff  :      600.00
  volume of cell :       74.00
      direct lattice vectors                 reciprocal lattice vectors
     4.780815773  0.000000000  0.000000000     0.209169323  0.000000000  0.000000000
     0.000000000  4.780815773  0.000000000     0.000000000  0.209169323  0.000000000
     0.000000000  0.000000000  3.237734972     0.000000000  0.000000000  0.308857893

  length of vectors
     4.780815773  4.780815773  3.237734972     0.209169323  0.209169323  0.308857893


 FORCES acting on ions
    electron-ion (+dipol)            ewald-force                    non-local-force                 convergence-correction
 -----------------------------------------------------------------------------------------------
   -.833E-07 0.123E-05 0.483E-10   -.171E-12 -.114E-12 -.238E-13   0.975E-07 -.123E-05 -.157E-08   0.286E-09 0.366E-08 0.245E-09
   -.847E-07 -.123E-05 -.509E-10   -.568E-13 0.199E-12 -.262E-13   0.975E-07 0.123E-05 -.342E-08   0.262E-08 -.414E-08 0.146E-09
   -.326E+02 0.326E+02 -.846E-06   0.338E+02 -.338E+02 0.163E-13   -.117E+01 0.117E+01 0.662E-07   -.901E-04 0.951E-04 0.692E-06
   0.326E+02 -.326E+02 0.846E-06   -.338E+02 0.338E+02 0.164E-13   0.117E+01 -.117E+01 -.662E-07   0.901E-04 -.951E-04 -.692E-06
   0.326E+02 0.326E+02 -.321E-04   -.338E+02 -.338E+02 0.997E-14   0.117E+01 0.117E+01 -.170E-04   -.637E-04 -.736E-04 0.380E-04
   -.326E+02 -.326E+02 0.321E-04   0.338E+02 0.338E+02 0.100E-13   -.117E+01 -.117E+01 0.170E-04   0.637E-04 0.736E-04 -.380E-04
 -----------------------------------------------------------------------------------------------
   -.986E-07 -.169E-09 -.150E-09   0.000E+00 -.711E-14 0.263E-14   0.948E-07 0.612E-09 -.470E-08   0.342E-08 -.266E-09 0.442E-09
 
 
 POSITION                                       TOTAL-FORCE (eV/Angst)
 -----------------------------------------------------------------------------------
      2.39041      2.39041      1.61887         0.000000      0.000000     -0.000000
      0.00000      0.00000      0.00000         0.000000     -0.000000     -0.000000
      0.93953      3.84129      1.61887        -0.001781      0.001780     -0.000000
      3.84129      0.93953      1.61887         0.001781     -0.001780      0.000000
      1.45088      1.45088      0.00000         0.001831      0.001832     -0.000011
      3.32994      3.32994      0.00000        -0.001831     -0.001832      0.000011
 -----------------------------------------------------------------------------------
    total drift:                               -0.000000      0.000000     -0.000000


--------------------------------------------------------------------------------------------------------



  FREE ENERGIE OF THE ION-ELECTRON SYSTEM (eV)
  ---------------------------------------------------
  free  energy   TOTEN  =       -40.97393766 eV

  energy  without entropy=      -40.97393766  energy(sigma->0) =      -40.97393766
 


--------------------------------------------------------------------------------------------------------


    POTLOK:  cpu time    3.0194: real time    3.0194

 Total magnetic moment S=     1.0000000

 Fermi contact (isotropic) hyperfine coupling parameter (MHz) 
 -------------------------------------------------------------
  ion      A_pw      A_1PS     A_1AE     A_1c      A_tot
 -------------------------------------------------------------
   1   -1264.107 -1264.067  -297.806  1045.431  -297.845
   2    1264.107  1264.067   297.806 -1045.431   297.845
   3      48.979    48.848   279.515   -39.835   279.646
   4      48.979    48.848   279.515   -39.835   279.646
   5     -48.979   -48.847  -279.522    39.833  -279.653
   6     -48.979   -48.847  -279.522    39.833  -279.653
 -------------------------------------------------------------


 Dipolar hyperfine coupling parameters (MHz)
 ---------------------------------------------------------------------
  ion      A_xx      A_yy      A_zz      A_xy      A_xz      A_yz
 ---------------------------------------------------------------------
   1       6.278     6.278   -12.556     1.553     0.001     0.001
   2      -6.279    -6.278    12.557     1.554    -0.000    -0.000
   3     -66.170   -66.170   132.340    10.666     0.000     0.000
   4     -66.170   -66.170   132.340    10.666     0.000     0.000
   5      66.170    66.170  -132.341    10.664    -0.000    -0.000
   6      66.170    66.170  -132.341    10.664    -0.000    -0.000
 ---------------------------------------------------------------------


 Total hyperfine coupling parameters after diagonalization (MHz)
 (convention: |A_zz| > |A_xx| > |A_yy|)
 ----------------------------------------------------------------------
  ion      A_xx      A_yy      A_zz     asymmetry (A_yy - A_xx)/ A_zz 
 ----------------------------------------------------------------------
   1    -293.120  -290.013  -310.401      -0.010
   2     293.120   290.013   310.402      -0.010
   3     224.142   202.809   411.986      -0.052
   4     224.142   202.809   411.986      -0.052
   5    -224.147  -202.818  -411.994      -0.052
   6    -224.147  -202.818  -411.994      -0.052
 ---------------------------------------------------------------------



--------------------------------------------------------------------------------------------------------


 writing wavefunctions
     LOOP+:  cpu time   75.7467: real time   75.7659
    4ORBIT:  cpu time    0.0000: real time    0.0000
 


 total charge     
 
# of ion       s       p       d       tot
------------------------------------------
    1        0.182   6.172   4.992  11.346
    2        0.182   6.172   4.992  11.346
    3        1.722   4.357   0.000   6.079
    4        1.722   4.357   0.000   6.079
    5        1.722   4.357   0.000   6.079
    6        1.722   4.357   0.000   6.079
--------------------------------------------------
tot          7.253  29.771   9.983  47.007
 


 magnetization (x)
 
# of ion       s       p       d       tot
------------------------------------------
    1       -0.014  -0.013  -4.526  -4.553
    2        0.014   0.013   4.526   4.553
    3        0.002   0.024   0.000   0.026
    4        0.002   0.024   0.000   0.026
    5       -0.002  -0.024   0.000  -0.026
    6       -0.002  -0.024   0.000  -0.026
--------------------------------------------------
tot          0.000  -0.000   0.000  -0.000
 
 BZINTS: Fermi energy:  2.637909; 54.000000 electrons
         Band energy:-739.055042;  BLOECHL correction:  0.000000

 total amount of memory used by VASP MPI-rank0    81105. kBytes
=======================================================================

   base      :      30000. kBytes
   nonl-proj :      34744. kBytes
   fftplans  :       1875. kBytes
   grid      :       2467. kBytes
   one-center:        186. kBytes
   wavefun   :      11833. kBytes
 
  
  
 General timing and accounting informations for this job:
 ========================================================
  
                  Total CPU time used (sec):       77.893
                            User time (sec):       54.323
                          System time (sec):       23.570
                         Elapsed time (sec):       77.956
  
                   Maximum memory used (kb):       91784.
                   Average memory used (kb):           0.
  
                          Minor page faults:        19109
                          Major page faults:            9
                 Voluntary context switches:          330
